# vtk DataFile Version 1.0
Cube
ASCII

DATASET POLYDATA
POINTS 804 float
LINES 0 0
POINT_DATA 804
SCALARS my_scalars float
LOOKUP_TABLE default
VECTORS vectors float
