# vtk DataFile Version 1.0
Cube
ASCII

DATASET POLYDATA
POINTS 460 float
21.588756 83.025382 41.551864
7.130496 43.897870 15.827726
107.130496 43.897870 15.827726
37.145776 -9.366774 71.644920
37.145776 90.633226 71.644920
82.698261 11.375394 84.461292
57.554031 1.041650 4.428167
57.554031 1.041650 104.428167
57.554031 101.041650 4.428167
57.554031 101.041650 104.428167
17.248616 33.026442 66.725793
23.768341 19.717255 66.300818
2.827572 74.454547 75.339075
102.827572 74.454547 75.339075
10.354878 78.875762 61.798936
17.309104 50.294592 68.212685
5.467039 -9.531033 48.528456
5.467039 90.468967 48.528456
105.467039 -9.531033 48.528456
105.467039 90.468967 48.528456
78.697563 73.916966 72.919104
45.979115 -7.426279 82.244793
45.979115 92.573721 82.244793
16.612626 78.321455 55.209248
52.063224 12.857427 62.706308
80.666932 67.685078 72.194417
15.297104 68.830365 4.443451
15.297104 68.830365 104.443451
70.537824 3.414197 -3.650662
70.537824 3.414197 96.349338
70.537824 103.414197 -3.650662
70.537824 103.414197 96.349338
11.772529 34.015085 31.698747
13.983247 76.280696 63.217546
73.928359 71.444517 17.099743
73.581097 87.153954 15.693332
-4.528876 83.997704 24.424673
95.471124 83.997704 24.424673
11.615889 13.551565 72.647492
62.894463 63.926226 83.980094
56.939053 62.036159 44.303624
44.293506 55.717902 50.604243
47.734577 2.609007 74.693583
47.734577 102.609007 74.693583
77.327478 56.288873 30.114807
-5.175415 -9.191751 73.909981
-5.175415 90.808249 73.909981
94.824585 -9.191751 73.909981
94.824585 90.808249 73.909981
88.158367 79.708957 76.029596
2.968727 -0.681349 66.674684
2.968727 99.318651 66.674684
102.968727 -0.681349 66.674684
102.968727 99.318651 66.674684
8.171449 10.796563 80.153003
108.171449 10.796563 80.153003
82.052247 42.928227 67.754997
60.819334 8.083347 69.776623
60.819334 108.083347 69.776623
45.334149 77.656022 37.371070
32.045082 -6.323171 33.017088
32.045082 93.676829 33.017088
76.594608 36.865724 89.169810
36.409413 71.217075 88.848893
42.525989 21.450001 68.007706
70.979666 56.604093 79.271959
83.410014 42.719926 80.988637
59.720447 38.668321 55.347175
46.758127 15.632207 21.565103
33.919723 73.972891 16.655099
87.536078 11.393236 6.775141
87.536078 11.393236 106.775141
78.920893 77.802517 5.888028
78.920893 77.802517 105.888028
54.214930 8.321881 -7.444651
54.214930 8.321881 92.555349
54.214930 108.321881 -7.444651
54.214930 108.321881 92.555349
2.021352 38.140449 38.301418
102.021352 38.140449 38.301418
9.334284 34.615844 2.254967
9.334284 34.615844 102.254967
109.334284 34.615844 2.254967
109.334284 34.615844 102.254967
31.044836 -7.879088 74.116390
31.044836 92.120912 74.116390
29.583996 34.947244 -4.069529
29.583996 34.947244 95.930471
7.795121 42.907584 89.189024
107.795121 42.907584 89.189024
67.438795 34.270765 67.487312
8.049484 86.112659 45.752302
108.049484 86.112659 45.752302
63.543818 36.054212 80.975274
-0.062283 40.657102 61.452707
99.937717 40.657102 61.452707
41.609178 30.959074 41.970083
-1.768088 63.816969 81.805599
98.231912 63.816969 81.805599
41.377888 49.361420 71.573266
76.494629 87.460029 40.188523
69.133449 74.984331 19.449469
54.201810 23.823784 58.888984
88.529884 63.871322 54.012050
32.935288 79.869833 47.541636
56.720437 39.506987 31.226447
31.029010 -9.372328 80.196252
31.029010 90.627672 80.196252
50.440421 29.525273 -9.619822
50.440421 29.525273 90.380178
51.684032 83.104705 7.610090
51.684032 83.104705 107.610090
74.542340 12.145020 43.640094
0.936985 42.262500 69.793360
100.936985 42.262500 69.793360
12.333583 6.007470 39.694380
12.333583 106.007470 39.694380
42.108910 -7.559263 13.242676
42.108910 92.440737 13.242676
37.047860 74.759672 -7.150127
37.047860 74.759672 92.849873
6.959946 74.287605 69.491610
106.959946 74.287605 69.491610
42.728692 70.423817 61.372766
67.229871 23.866673 52.057053
38.700316 -3.034876 0.715829
38.700316 -3.034876 100.715829
38.700316 96.965124 0.715829
38.700316 96.965124 100.715829
84.101015 74.028468 -8.809356
84.101015 74.028468 91.190644
78.682637 59.582007 3.737831
78.682637 59.582007 103.737831
30.673818 82.227359 87.152821
40.235029 -0.028629 29.608086
40.235029 99.971371 29.608086
13.379133 0.590265 13.399285
13.379133 100.590265 13.399285
15.323332 8.867911 9.055432
15.323332 8.867911 109.055432
15.323332 108.867911 9.055432
15.323332 108.867911 109.055432
13.314710 44.734100 75.593172
42.840460 78.733340 24.139287
48.183399 5.795271 58.173275
48.183399 105.795271 58.173275
66.862651 15.719277 68.657471
40.233671 7.228545 1.373340
40.233671 7.228545 101.373340
40.233671 107.228545 1.373340
40.233671 107.228545 101.373340
-1.905550 88.490978 37.379683
98.094450 88.490978 37.379683
52.028576 32.465300 55.097267
39.086291 78.563006 67.311785
63.827000 24.060663 42.936093
43.037251 87.529467 51.966806
23.738170 81.117120 79.063848
37.406860 33.621000 84.413364
25.757479 37.494699 78.251511
-5.335436 82.078224 19.467044
94.664564 82.078224 19.467044
-8.068008 57.714201 73.941147
91.931992 57.714201 73.941147
-4.616311 86.262118 1.187987
-4.616311 86.262118 101.187987
95.383689 86.262118 1.187987
95.383689 86.262118 101.187987
6.042929 18.665194 77.576889
106.042929 18.665194 77.576889
9.490118 7.288417 27.935989
9.490118 107.288417 27.935989
109.490118 7.288417 27.935989
109.490118 107.288417 27.935989
42.287035 -0.434239 61.249493
42.287035 99.565761 61.249493
33.962427 73.887117 77.112481
84.872232 12.750449 10.924801
66.225627 84.042853 56.873170
63.695604 80.389213 86.780351
6.471367 75.348998 82.850539
106.471367 75.348998 82.850539
60.988764 80.961379 31.895637
48.046544 56.550310 36.732824
-0.747656 86.332454 84.792728
99.252344 86.332454 84.792728
76.395822 62.692458 -5.965304
76.395822 62.692458 94.034696
11.551438 20.344738 -0.902831
11.551438 20.344738 99.097169
4.200087 79.944703 38.016912
104.200087 79.944703 38.016912
37.004471 80.066351 28.748604
42.635451 0.502847 33.056616
42.635451 100.502847 33.056616
15.257262 30.232466 59.538108
4.795875 14.323374 7.699979
4.795875 14.323374 107.699979
104.795875 14.323374 7.699979
104.795875 14.323374 107.699979
52.097277 82.868125 22.637628
49.853924 9.880477 39.884904
49.853924 109.880477 39.884904
-7.277368 77.971665 18.570141
92.722632 77.971665 18.570141
42.923892 49.024008 55.238376
44.725471 63.708180 78.714687
30.505410 88.551244 42.736615
2.899609 40.162270 17.093709
102.899609 40.162270 17.093709
8.782403 43.795577 -7.027614
8.782403 43.795577 92.972386
108.782403 43.795577 -7.027614
108.782403 43.795577 92.972386
82.875386 6.275748 33.080562
82.875386 106.275748 33.080562
65.775330 17.314640 39.454302
40.984466 2.047839 64.520529
40.984466 102.047839 64.520529
13.573398 -2.892493 73.625601
13.573398 97.107507 73.625601
20.744101 13.793554 62.790696
14.565637 57.683859 9.822853
14.565637 57.683859 109.822853
73.931426 63.162835 59.536382
26.395758 -9.038222 82.521792
26.395758 90.961778 82.521792
37.814346 69.405567 44.200170
20.736933 1.218647 47.467485
20.736933 101.218647 47.467485
35.036685 56.033271 36.704139
83.193895 54.626811 26.075953
84.617559 33.401008 17.665753
63.631736 71.333604 4.075032
63.631736 71.333604 104.075032
21.726542 54.526019 32.160928
51.890474 45.220857 68.709547
75.853717 34.435884 58.699307
31.036929 4.259426 26.749903
31.036929 104.259426 26.749903
-5.676063 45.782902 55.551401
94.323937 45.782902 55.551401
26.688992 -1.829919 78.189077
26.688992 98.170081 78.189077
-6.315917 71.692121 -3.138257
-6.315917 71.692121 96.861743
93.684083 71.692121 -3.138257
93.684083 71.692121 96.861743
25.690567 0.910707 50.817444
25.690567 100.910707 50.817444
80.341559 75.589912 8.253495
80.341559 75.589912 108.253495
60.407486 22.814404 4.605046
60.407486 22.814404 104.605046
28.922259 49.272288 42.467628
-0.689881 8.119628 17.395613
-0.689881 108.119628 17.395613
99.310119 8.119628 17.395613
99.310119 108.119628 17.395613
70.476048 7.925259 81.747072
70.476048 107.925259 81.747072
-9.527047 21.278345 30.904042
90.472953 21.278345 30.904042
-5.337153 52.173704 14.418862
94.662847 52.173704 14.418862
20.542888 40.096355 1.454916
20.542888 40.096355 101.454916
66.629611 41.651925 -2.215843
66.629611 41.651925 97.784157
-9.790934 72.862095 12.131504
90.209066 72.862095 12.131504
27.710423 2.283471 -2.617540
27.710423 2.283471 97.382460
27.710423 102.283471 -2.617540
27.710423 102.283471 97.382460
6.963449 5.202492 22.449890
6.963449 105.202492 22.449890
106.963449 5.202492 22.449890
106.963449 105.202492 22.449890
87.156476 38.425583 19.648646
86.526673 -2.072131 -7.989188
86.526673 -2.072131 92.010812
86.526673 97.927869 -7.989188
86.526673 97.927869 92.010812
77.088374 25.935601 25.398455
30.843021 71.523170 16.445177
80.259581 -10.052722 7.033533
80.259581 -10.052722 107.033533
80.259581 89.947278 7.033533
80.259581 89.947278 107.033533
6.916502 27.597603 5.966216
6.916502 27.597603 105.966216
106.916502 27.597603 5.966216
106.916502 27.597603 105.966216
-2.490490 67.752614 86.133747
97.509510 67.752614 86.133747
26.520538 62.090251 -3.780464
26.520538 62.090251 96.219536
58.040665 15.028961 52.558980
15.567199 39.779965 60.071056
29.031180 20.584583 26.345425
85.529891 34.074710 61.443947
-0.737467 70.147703 20.716980
99.262533 70.147703 20.716980
35.358872 60.858699 -5.850016
35.358872 60.858699 94.149984
28.231055 1.571005 -7.194427
28.231055 1.571005 92.805573
28.231055 101.571005 -7.194427
28.231055 101.571005 92.805573
84.729292 89.367399 52.482365
58.099372 86.279837 49.882298
76.201602 54.532313 74.759733
-4.211864 -5.263260 43.863735
-4.211864 94.736740 43.863735
95.788136 -5.263260 43.863735
95.788136 94.736740 43.863735
-3.270106 -8.281705 47.725472
-3.270106 91.718295 47.725472
96.729894 -8.281705 47.725472
96.729894 91.718295 47.725472
-4.847142 83.771860 11.013302
95.152858 83.771860 11.013302
14.413100 80.497609 66.056974
34.418417 48.825187 55.786549
9.988321 70.079322 51.122431
109.988321 70.079322 51.122431
36.786063 -0.453885 65.371402
36.786063 99.546115 65.371402
-8.096373 4.088310 82.864484
-8.096373 104.088310 82.864484
91.903627 4.088310 82.864484
91.903627 104.088310 82.864484
48.598329 80.017734 42.054477
29.628496 26.122730 -6.620578
29.628496 26.122730 93.379422
70.287561 7.193726 -6.440746
70.287561 7.193726 93.559254
70.287561 107.193726 -6.440746
70.287561 107.193726 93.559254
34.395686 31.106479 12.946326
66.114788 -5.957737 79.410967
66.114788 94.042263 79.410967
25.375443 -1.777193 -3.464328
25.375443 -1.777193 96.535672
25.375443 98.222807 -3.464328
25.375443 98.222807 96.535672
54.526695 7.430049 56.417213
54.526695 107.430049 56.417213
75.542949 -6.502298 66.784727
75.542949 93.497702 66.784727
43.268592 -6.528146 -7.288060
43.268592 -6.528146 92.711940
43.268592 93.471854 -7.288060
43.268592 93.471854 92.711940
83.182975 77.819623 9.885706
83.182975 77.819623 109.885706
13.913528 42.261541 70.578904
50.648705 23.277486 38.256885
72.152467 33.204338 10.668492
30.180680 80.014760 43.640564
26.323296 31.478316 70.136290
45.325255 5.454135 86.954089
45.325255 105.454135 86.954089
4.739462 54.564832 12.483479
104.739462 54.564832 12.483479
8.591035 54.401147 70.954221
108.591035 54.401147 70.954221
33.036972 88.827721 74.526010
57.956187 -0.453022 24.753016
57.956187 99.546978 24.753016
29.276829 10.869207 -0.313616
29.276829 10.869207 99.686384
0.222245 0.942893 32.840830
0.222245 100.942893 32.840830
100.222245 0.942893 32.840830
100.222245 100.942893 32.840830
20.069565 71.985344 60.457928
-2.224447 -5.958670 -7.559713
-2.224447 -5.958670 92.440287
-2.224447 94.041330 -7.559713
-2.224447 94.041330 92.440287
97.775553 -5.958670 -7.559713
97.775553 -5.958670 92.440287
97.775553 94.041330 -7.559713
97.775553 94.041330 92.440287
-6.737499 -4.147982 83.194550
-6.737499 95.852018 83.194550
93.262501 -4.147982 83.194550
93.262501 95.852018 83.194550
69.923926 89.721828 42.176600
65.063478 86.648917 69.699973
75.822985 60.304001 52.405628
-7.359824 36.402673 0.383749
-7.359824 36.402673 100.383749
92.640176 36.402673 0.383749
92.640176 36.402673 100.383749
10.693091 12.663575 -8.189125
10.693091 12.663575 91.810875
88.881383 40.204700 11.924470
49.580517 72.081041 48.337353
45.308802 73.272014 61.936256
29.754106 8.882692 89.721546
29.754106 108.882692 89.721546
32.758433 -4.008034 27.987275
32.758433 95.991966 27.987275
38.796872 4.857103 89.798367
38.796872 104.857103 89.798367
0.236503 -6.946444 84.046221
0.236503 93.053556 84.046221
100.236503 -6.946444 84.046221
100.236503 93.053556 84.046221
17.920468 41.061001 83.837842
86.265938 1.655712 40.126709
86.265938 101.655712 40.126709
85.023534 49.189318 57.391608
29.612999 70.277323 19.574862
53.515191 53.208540 47.941320
16.501664 52.144217 38.022239
63.755459 64.675715 65.084048
28.439525 69.599752 72.177582
15.587706 75.036545 70.970520
14.919951 28.390246 18.565686
72.463039 10.831719 16.861178
81.184722 73.390412 2.826022
81.184722 73.390412 102.826022
61.837700 3.611907 20.808446
61.837700 103.611907 20.808446
16.353969 38.758657 14.437922
62.678354 39.381376 2.759610
62.678354 39.381376 102.759610
41.556215 58.986638 43.353893
68.529297 80.349864 9.067750
68.529297 80.349864 109.067750
34.870185 49.050695 17.835766
15.161135 2.957234 19.593369
15.161135 102.957234 19.593369
39.851320 44.090642 28.783056
22.753124 89.814393 19.827797
2.343798 34.271370 72.070218
102.343798 34.271370 72.070218
38.574048 9.034925 54.302262
38.574048 109.034925 54.302262
61.729937 8.008151 36.149380
61.729937 108.008151 36.149380
34.676896 87.271485 82.525612
68.502189 22.010590 15.214108
55.137695 17.040748 5.086655
55.137695 17.040748 105.086655
12.478670 57.172719 50.974006
7.657001 10.761884 34.360282
107.657001 10.761884 34.360282
17.645246 38.306667 72.029094
83.141781 -7.949359 32.144424
83.141781 92.050641 32.144424
-2.486467 0.994124 43.976466
-2.486467 100.994124 43.976466
97.513533 0.994124 43.976466
97.513533 100.994124 43.976466
88.817992 69.860388 88.231372
LINES 0 0
POINT_DATA 460
SCALARS my_scalars float
LOOKUP_TABLE default
1.7
1.7
1.7
1.7
1.7
1.7
1.7
1.7
1.7
1.7
1.7
1.7
1.7
1.7
1.7
1.7
1.7
1.7
1.7
1.7
1.7
1.7
1.7
1.7
1.7
1.7
1.7
1.7
1.7
1.7
1.7
1.7
1.7
1.7
1.7
1.7
1.7
1.7
1.7
1.7
1.7
1.7
1.7
1.7
1.7
1.7
1.7
1.7
1.7
1.7
1.7
1.7
1.7
1.7
1.7
1.7
1.7
1.7
1.7
1.7
1.7
1.7
1.7
1.7
1.7
1.7
1.7
1.7
1.7
1.7
1.7
1.7
1.7
1.7
1.7
1.7
1.7
1.7
1.7
1.7
1.7
1.7
1.7
1.7
1.7
1.7
1.7
1.7
1.7
1.7
1.7
1.7
1.7
1.7
1.7
1.7
1.7
1.7
1.7
1.7
1.7
1.7
1.7
1.7
1.7
1.7
1.7
1.7
1.7
1.7
1.7
1.7
1.7
1.7
1.7
1.7
1.7
1.7
1.7
1.7
1.7
1.7
1.7
1.7
1.7
1.7
1.7
1.7
1.7
1.7
1.7
1.7
1.7
1.7
1.7
1.7
1.7
1.7
1.7
1.7
1.7
1.7
1.7
1.7
1.7
1.7
1.7
1.7
1.7
1.7
1.7
1.7
1.7
1.7
1.7
1.7
1.7
1.7
1.7
1.7
1.7
1.7
1.7
1.7
1.7
1.7
1.7
1.7
1.7
1.7
1.7
1.7
1.7
1.7
1.7
1.7
1.7
1.7
1.7
1.7
1.7
1.7
1.7
1.7
1.7
1.7
1.7
1.7
1.7
1.7
1.7
1.7
1.7
1.7
1.7
1.7
1.7
1.7
1.7
1.7
1.7
1.7
1.7
1.7
1.7
1.7
1.7
1.7
1.7
1.7
1.7
1.7
1.7
1.7
1.7
1.7
1.7
1.7
1.7
1.7
1.7
1.7
1.7
1.7
1.7
1.7
1.7
1.7
1.7
1.7
1.7
1.7
1.7
1.7
1.7
1.7
1.7
1.7
1.7
1.7
1.7
1.7
1.7
1.7
1.7
1.7
1.7
1.7
1.7
1.7
1.7
1.7
1.7
1.7
1.7
1.7
1.7
1.7
1.7
1.7
1.7
1.7
1.7
1.7
1.7
1.7
1.7
1.7
1.7
1.7
1.7
1.7
1.7
1.7
1.7
1.7
1.7
1.7
1.7
1.7
1.7
1.7
1.7
1.7
1.7
1.7
1.7
1.7
1.7
1.7
1.7
1.7
1.7
1.7
1.7
1.7
1.7
1.7
1.7
1.7
1.7
1.7
1.7
1.7
1.7
1.7
1.7
1.7
1.7
1.7
1.7
1.7
1.7
1.7
1.7
1.7
1.7
1.7
1.7
1.7
1.7
1.7
1.7
1.7
1.7
1.7
1.7
1.7
1.7
1.7
1.7
1.7
1.7
1.7
1.7
1.7
1.7
1.7
1.7
1.7
1.7
1.7
1.7
1.7
1.7
1.7
1.7
1.7
1.7
1.7
1.7
1.7
1.7
1.7
1.7
1.7
1.7
1.7
1.7
1.7
1.7
1.7
1.7
1.7
1.7
1.7
1.7
1.7
1.7
1.7
1.7
1.7
1.7
1.7
1.7
1.7
1.7
1.7
1.7
1.7
1.7
1.7
1.7
1.7
1.7
1.7
1.7
1.7
1.7
1.7
1.7
1.7
1.7
1.7
1.7
1.7
1.7
1.7
1.7
1.7
1.7
1.7
1.7
1.7
1.7
1.7
1.7
1.7
1.7
1.7
1.7
1.7
1.7
1.7
1.7
1.7
1.7
1.7
1.7
1.7
1.7
1.7
1.7
1.7
1.7
1.7
1.7
1.7
1.7
1.7
1.7
1.7
1.7
1.7
1.7
1.7
1.7
1.7
1.7
1.7
1.7
1.7
1.7
1.7
1.7
1.7
1.7
1.7
1.7
1.7
1.7
1.7
1.7
1.7
1.7
1.7
1.7
1.7
1.7
1.7
VECTORS vectors float
0.3125 0 0
0.3125 0 0
0.3125 0 0
0.3125 0 0
0.3125 0 0
0.3125 0 0
0.3125 0 0
0.3125 0 0
0.3125 0 0
0.3125 0 0
0.3125 0 0
0.3125 0 0
0.3125 0 0
0.3125 0 0
0.3125 0 0
0.3125 0 0
0.3125 0 0
0.3125 0 0
0.3125 0 0
0.3125 0 0
0.3125 0 0
0.3125 0 0
0.3125 0 0
0.3125 0 0
0.3125 0 0
0.3125 0 0
0.3125 0 0
0.3125 0 0
0.3125 0 0
0.3125 0 0
0.3125 0 0
0.3125 0 0
0.3125 0 0
0.3125 0 0
0.3125 0 0
0.3125 0 0
0.3125 0 0
0.3125 0 0
0.3125 0 0
0.3125 0 0
0.3125 0 0
0.3125 0 0
0.3125 0 0
0.3125 0 0
0.3125 0 0
0.3125 0 0
0.3125 0 0
0.3125 0 0
0.3125 0 0
0.3125 0 0
0.3125 0 0
0.3125 0 0
0.3125 0 0
0.3125 0 0
0.3125 0 0
0.3125 0 0
0.3125 0 0
0.3125 0 0
0.3125 0 0
0.3125 0 0
0.3125 0 0
0.3125 0 0
0.3125 0 0
0.3125 0 0
0.3125 0 0
0.3125 0 0
0.3125 0 0
0.3125 0 0
0.3125 0 0
0.3125 0 0
0.3125 0 0
0.3125 0 0
0.3125 0 0
0.3125 0 0
0.3125 0 0
0.3125 0 0
0.3125 0 0
0.3125 0 0
0.3125 0 0
0.3125 0 0
0.3125 0 0
0.3125 0 0
0.3125 0 0
0.3125 0 0
0.3125 0 0
0.3125 0 0
0.3125 0 0
0.3125 0 0
0.3125 0 0
0.3125 0 0
0.3125 0 0
0.3125 0 0
0.3125 0 0
0.3125 0 0
0.3125 0 0
0.3125 0 0
0.3125 0 0
0.3125 0 0
0.3125 0 0
0.3125 0 0
0.3125 0 0
0.3125 0 0
0.3125 0 0
0.3125 0 0
0.3125 0 0
0.3125 0 0
0.3125 0 0
0.3125 0 0
0.3125 0 0
0.3125 0 0
0.3125 0 0
0.3125 0 0
0.3125 0 0
0.3125 0 0
0.3125 0 0
0.3125 0 0
0.3125 0 0
0.3125 0 0
0.3125 0 0
0.3125 0 0
0.3125 0 0
0.3125 0 0
0.3125 0 0
0.3125 0 0
0.3125 0 0
0.3125 0 0
0.3125 0 0
0.3125 0 0
0.3125 0 0
0.3125 0 0
0.3125 0 0
0.3125 0 0
0.3125 0 0
0.3125 0 0
0.3125 0 0
0.3125 0 0
0.3125 0 0
0.3125 0 0
0.3125 0 0
0.3125 0 0
0.3125 0 0
0.3125 0 0
0.3125 0 0
0.3125 0 0
0.3125 0 0
0.3125 0 0
0.3125 0 0
0.3125 0 0
0.3125 0 0
0.3125 0 0
0.3125 0 0
0.3125 0 0
0.3125 0 0
0.3125 0 0
0.3125 0 0
0.3125 0 0
0.3125 0 0
0.3125 0 0
0.3125 0 0
0.3125 0 0
0.3125 0 0
0.3125 0 0
0.3125 0 0
0.3125 0 0
0.3125 0 0
0.3125 0 0
0.3125 0 0
0.3125 0 0
0.3125 0 0
0.3125 0 0
0.3125 0 0
0.3125 0 0
0.3125 0 0
0.3125 0 0
0.3125 0 0
0.3125 0 0
0.3125 0 0
0.3125 0 0
0.3125 0 0
0.3125 0 0
0.3125 0 0
0.3125 0 0
0.3125 0 0
0.3125 0 0
0.3125 0 0
0.3125 0 0
0.3125 0 0
0.3125 0 0
0.3125 0 0
0.3125 0 0
0.3125 0 0
0.3125 0 0
0.3125 0 0
0.3125 0 0
0.3125 0 0
0.3125 0 0
0.3125 0 0
0.3125 0 0
0.3125 0 0
0.3125 0 0
0.3125 0 0
0.3125 0 0
0.3125 0 0
0.3125 0 0
0.3125 0 0
0.3125 0 0
0.3125 0 0
0.3125 0 0
0.3125 0 0
0.3125 0 0
0.3125 0 0
0.3125 0 0
0.3125 0 0
0.3125 0 0
0.3125 0 0
0.3125 0 0
0.3125 0 0
0.3125 0 0
0.3125 0 0
0.3125 0 0
0.3125 0 0
0.3125 0 0
0.3125 0 0
0.3125 0 0
0.3125 0 0
0.3125 0 0
0.3125 0 0
0.3125 0 0
0.3125 0 0
0.3125 0 0
0.3125 0 0
0.3125 0 0
0.3125 0 0
0.3125 0 0
0.3125 0 0
0.3125 0 0
0.3125 0 0
0.3125 0 0
0.3125 0 0
0.3125 0 0
0.3125 0 0
0.3125 0 0
0.3125 0 0
0.3125 0 0
0.3125 0 0
0.3125 0 0
0.3125 0 0
0.3125 0 0
0.3125 0 0
0.3125 0 0
0.3125 0 0
0.3125 0 0
0.3125 0 0
0.3125 0 0
0.3125 0 0
0.3125 0 0
0.3125 0 0
0.3125 0 0
0.3125 0 0
0.3125 0 0
0.3125 0 0
0.3125 0 0
0.3125 0 0
0.3125 0 0
0.3125 0 0
0.3125 0 0
0.3125 0 0
0.3125 0 0
0.3125 0 0
0.3125 0 0
0.3125 0 0
0.3125 0 0
0.3125 0 0
0.3125 0 0
0.3125 0 0
0.3125 0 0
0.3125 0 0
0.3125 0 0
0.3125 0 0
0.3125 0 0
0.3125 0 0
0.3125 0 0
0.3125 0 0
0.3125 0 0
0.3125 0 0
0.3125 0 0
0.3125 0 0
0.3125 0 0
0.3125 0 0
0.3125 0 0
0.3125 0 0
0.3125 0 0
0.3125 0 0
0.3125 0 0
0.3125 0 0
0.3125 0 0
0.3125 0 0
0.3125 0 0
0.3125 0 0
0.3125 0 0
0.3125 0 0
0.3125 0 0
0.3125 0 0
0.3125 0 0
0.3125 0 0
0.3125 0 0
0.3125 0 0
0.3125 0 0
0.3125 0 0
0.3125 0 0
0.3125 0 0
0.3125 0 0
0.3125 0 0
0.3125 0 0
0.3125 0 0
0.3125 0 0
0.3125 0 0
0.3125 0 0
0.3125 0 0
0.3125 0 0
0.3125 0 0
0.3125 0 0
0.3125 0 0
0.3125 0 0
0.3125 0 0
0.3125 0 0
0.3125 0 0
0.3125 0 0
0.3125 0 0
0.3125 0 0
0.3125 0 0
0.3125 0 0
0.3125 0 0
0.3125 0 0
0.3125 0 0
0.3125 0 0
0.3125 0 0
0.3125 0 0
0.3125 0 0
0.3125 0 0
0.3125 0 0
0.3125 0 0
0.3125 0 0
0.3125 0 0
0.3125 0 0
0.3125 0 0
0.3125 0 0
0.3125 0 0
0.3125 0 0
0.3125 0 0
0.3125 0 0
0.3125 0 0
0.3125 0 0
0.3125 0 0
0.3125 0 0
0.3125 0 0
0.3125 0 0
0.3125 0 0
0.3125 0 0
0.3125 0 0
0.3125 0 0
0.3125 0 0
0.3125 0 0
0.3125 0 0
0.3125 0 0
0.3125 0 0
0.3125 0 0
0.3125 0 0
0.3125 0 0
0.3125 0 0
0.3125 0 0
0.3125 0 0
0.3125 0 0
0.3125 0 0
0.3125 0 0
0.3125 0 0
0.3125 0 0
0.3125 0 0
0.3125 0 0
0.3125 0 0
0.3125 0 0
0.3125 0 0
0.3125 0 0
0.3125 0 0
0.3125 0 0
0.3125 0 0
0.3125 0 0
0.3125 0 0
0.3125 0 0
0.3125 0 0
0.3125 0 0
0.3125 0 0
0.3125 0 0
0.3125 0 0
0.3125 0 0
0.3125 0 0
0.3125 0 0
0.3125 0 0
0.3125 0 0
0.3125 0 0
0.3125 0 0
0.3125 0 0
0.3125 0 0
0.3125 0 0
0.3125 0 0
0.3125 0 0
0.3125 0 0
0.3125 0 0
0.3125 0 0
0.3125 0 0
0.3125 0 0
0.3125 0 0
0.3125 0 0
0.3125 0 0
0.3125 0 0
0.3125 0 0
0.3125 0 0
0.3125 0 0
0.3125 0 0
0.3125 0 0
0.3125 0 0
0.3125 0 0
0.3125 0 0
0.3125 0 0
0.3125 0 0
0.3125 0 0
0.3125 0 0
0.3125 0 0
0.3125 0 0
0.3125 0 0
0.3125 0 0
0.3125 0 0
0.3125 0 0
0.3125 0 0
0.3125 0 0
0.3125 0 0
0.3125 0 0
0.3125 0 0
0.3125 0 0
0.3125 0 0
0.3125 0 0
0.3125 0 0
0.3125 0 0
0.3125 0 0
0.3125 0 0
0.3125 0 0
0.3125 0 0
0.3125 0 0
0.3125 0 0
0.3125 0 0
0.3125 0 0
0.3125 0 0
0.3125 0 0
0.3125 0 0
0.3125 0 0
0.3125 0 0
0.3125 0 0
0.3125 0 0
0.3125 0 0
0.3125 0 0
