Compiler and run-time data
===========================================================================
RASPA 2.0.47
Compiled as a 64-bits application
Compiler: gcc Apple LLVM 13.0.0 (clang-1300.0.29.30)
Compile Date = Apr 11 2022, Compile Time = 17:25:30

Sun May  8 20:39:41 2022
Simulation started on Sunday, May 08.
The start time was 08:39 PM.

Cpu data:    x86_64
Cpu Model:   MacBookPro15,1
Host name:   wirelessprv-10-195-238-78.near.illinois.edu
OS release:  20.6.0
OS type:     Darwin
OS version:  20G165


Simulation
===========================================================================
Dimensions: 3
Random number seed: 1652060381
RASPA directory set to: /Users/amogh/RASPA/simulations/
String appended to output-files: 
Number of cycles: 5000
Number of initializing cycles: 200
Number of equilibration cycles: 0
Print every: 100
Rectangular boundary condition applied
Timestep: 0.000500
	Degrees of freedom:                        300
	Translational Degrees of freedom:          300
	Rotational Degrees of freedom:             0
	Degrees of freedom Framework:              0


Mutual consistent basic set of units:
======================================
Unit of temperature: Kelvin
Unit of length:      1e-10 [m]
Unit of time:        1e-12 [s]
Unit of mass:        1.66054e-27 [kg]
Unit of charge:      1.60218e-19 [C/particle]

Derived units and their conversion factors:
===========================================
Unit of energy:              1.66054e-23 [J]
Unit of force:               1.66054e-13 [N]
Unit of pressure:            1.66054e+07 [Pa]
Unit of velocity:            100 [m/s]
Unit of acceleration:        1e-08 [m^2/s]
Unit of diffusion:           1e-08 [m^2/s]
Unit of dipole moment:       1.60218e-29 [C.m]
Unit of electric potential:  0.000103643 [V]
Unit of electric field:      1.03643e+06 [V]
Unit of polarizability:      1.54587e-35 [-]
Unit of Coulomb potential:   167101.0800066561  [K]
Unit of dielectric constant: 0.0000154587       [s^2 C^2/(kg m^3)]
Unit of wave vectors:        5.3088374589       [cm^1]
Boltzmann constant:          0.8314464919       [-]

Internal conversion factors:
===========================================
Energy to Kelvin:                                    1.2027242847
FH correction factor                                 2.0211930949
Heat capacity conversion factor:                    10.0000088723
From Debye to internal units:                        4.8032067991
Isothermal compressibility conversion factor:        0.0000000602

Energy conversion factors:
===========================================
From mdyne/A to kcal/mol/A^2:           143.933
From mdyne/A to kj/mol/A^2:             602.214
From mdyne/A to K/A^2:                  72429.7
From mdyne A/rad^2 to kcal/mol/deg^2:   0.0438444


Properties computed
===========================================================================
Movies: no
Radial Distribution Function: no
Number of molecules GCMC histogram: no
Histogram of the molecule positions: no
Free energy profiles: no
Pore Size Distribution Function: no
End-to-end distance: no
Histogram of the energy of the system: no
Compute thermodynamic factors: no
Framework spacing histograms: no
Residence times histograms: no
Distance histograms: no
Bend Angle histograms: no
Dihedral angle histograms: no
Angle between planes histograms: no
Molecule properties: no
Infra-red spectra: no
Mean-squared displacement using modified order-N algorithm: no
Velocity-autocorrelation function modified order-N algorithm: no
Rotational velocity-autocorrelation function modified order-N algorithm: no
Molecular orientation-autocorrelation function modified order-N algorithm: no
Bond orientation-autocorrelation function modified order-N algorithm: no
Mean-squared displacement (conventional algorithm): no
Velocity-autocorrelation function (conventional algorithm): no
3D density grid for adsorbates: no
Compute cation an/or adsorption sites: no
dcTST snapshots: no
Compute pressure and stress: yes


VTK
===========================================================================
VTK fractional-range position framework atoms: [-0.001000,1.001000] [-0.001000,1.001000] [-0.001000,1.001000]
VTK fractional-range position framework bonds: [-0.151000,1.151000] [-0.151000,1.151000] [-0.151000,1.151000]
VTK fractional-range com-position adsorbate molecules: [-0.101000,1.101000] [-0.101000,1.101000] [-0.101000,1.101000]
VTK fractional-range com-position cation molecules: [-0.101000,1.101000] [-0.101000,1.101000] [-0.101000,1.101000]
	3D free energy grid made for the full simulation-cell


Thermo/Baro-stat NHC parameters
===========================================================================
External temperature: 298 [K]
Beta: 0.00403598 [energy unit]
External Pressure: 2.48e+07 [Pa]


Thermostat chain-length: 3
Timescale parameter for thermostat: 0.150000 [ps]
Barostat chain-length:   3
Timescale parameter for barostat:   0.150000 [ps]

Number of Yoshida-Suzuki decomposition steps: 5
Number of respa steps: 5


Method and settings for electrostatics
===============================================================================
Dielectric constant of the medium : 1.000000
Charge from charge-equilibration: no
Ewald summation is used (exact solution of a periodic system)
Relative precision                : 1e-06
Alpha convergence parameter       : 0.265058
kvec (x,y,z)                      : 27 27 27


CFC-RXMC parameters
===========================================================================
Number of reactions: 0


Rattle parameters
===========================================================================
Distance constraint type: r^2-r^2_0
Bend angle constraint type: theta-theta_0
Dihedral angle constraint type: phi-phi_0
Inversion-bend angle constraint type: chi-chi_0
Out-of-plane distance constraint type: r-r_0


Spectra parameters
===========================================================================
Compute normal modes: no


Minimization parameters
===========================================================================
Generalized coordinates are: Cartesian center-of-mass, elements of the orientational matrix p1,p2,p3 and strain
Potential derivatives are evaluated: analytically
Translation of the system is removed from the generalized Hessian: no
Rotation of the system is removed from the generalized Hessian: no
Maximum step-length: 0.3
Convergence factor: 1
Maximum number of minimization steps: 10000
Use gradients in the line-minimizations: yes
RMS gradient tolerance: 1e-06
Maximum gradient tolerance: 1e-06

Distance constraints: 0
Angle constraints: 0
Dihedral constraints: 0

Improper dihedral constraints: 0

Inversion-bend constraints: 0

Out-of-plane constraints: 0

Harmonic distance constraints: 0
Harmonic angle constraints: 0
Harmonic dihedral constraints: 0

Dihedral mid-point measurements: 0

All framework atoms are fixed

Fixed adsorbate atoms:  
Fixed adsorbate groups (center-of-mass):  
Fixed adsorbate groups (orientation):  

Fixed cation atoms:  
Fixed cation groups (center-of-mass):  
Fixed cation groups (orientation):  


dcTST parameters
===========================================================================
Free energy profiles computed: no
Free energy profiles written every 5000 cycles
Free energy mapping: mapped to a,b,c-coordinates
BarrierPosition:       0.0000000000       0.0000000000       0.0000000000
BarrierNormal:         0.0000000000       0.0000000000       0.0000000000
Start with a molecule on top of the barrier: no
Maximum distance to barrier (e.g. distance to minumum free energy):       0.0000000000 [A]
Maximum trajectory time:      10.0000000000 [ps]
Each configuration is used with 5 different initial velocities


Cbmc parameters
===========================================================================
Biasing method: using only the VDW part
Number of trial positions:                                       10
Number of trial positions (reinsertion):                         10
Number of trial positions (partial reinsertion):                 10
Number of trial positions (identity-change):                     10
Number of trial positions (Gibbs particle transfer):             10
Number of trial positions (insertion/deletion):                  10
Number of trial positions (Widom insertion):                     10
Number of trial positions coupled Torsion-selection:             100
Number of trial positions first bead:                            10
Number of trial positions first bead (reinsertion):              10
Number of trial positions first bead (partial reinsertion):      10
Number of trial positions first bead (identity-change):          10
Number of trial positions first bead (Gibbs particle transfer):  10
Number of trial positions first bead (insertion/deletion):       10
Number of trial positions first bead (Widom insertion):          10
Number of trial moves per open bead:                             150
Target acceptance ratio small-mc scheme:                         0.400000
Energy overlap criteria:                                         1e+07
Minimal Rosenbluth factor:                                       1e-150


Pseudo atoms: 14
===========================================================================
Pseudo Atom[   0] Name UNIT     Oxidation:          Element: H    pdb-name: H    Scat. Types:   1   1 Mass=1.000000000  B-factor:0.000   
                 Charge=1.000000000          Polarization=0.000000000  [A^3] (considered a charged atom and no polarization)  Interactions: yes
                 Anisotropic factor:    0.000 [-] (Absolute), Radius:    1.000 [A], Framework-atom:  no
Pseudo Atom[   1] Name He       Oxidation: +0       Element: He   pdb-name: He   Scat. Types:   3   2 Mass=4.002602000  B-factor:1.000   
                 Charge=0.000000000          Polarization=0.000000000  [A^3] (considered a chargeless atom and no polarization)  Interactions: yes
                 Anisotropic factor:    0.000 [-] (Relative), Radius:    1.000 [A], Framework-atom:  no
Pseudo Atom[   2] Name C_co2    Oxidation: +0       Element: C    pdb-name: C    Scat. Types:   7   6 Mass=12.000000000 B-factor:1.000   
                 Charge=0.651200000          Polarization=0.000000000  [A^3] (considered a charged atom and no polarization)  Interactions: yes
                 Anisotropic factor:    0.000 [-] (Relative), Radius:    0.720 [A], Framework-atom:  no
Pseudo Atom[   3] Name O_co2    Oxidation: +0       Element: O    pdb-name: O    Scat. Types:   9   8 Mass=15.999400000 B-factor:1.000   
                 Charge=-0.325600000         Polarization=0.000000000  [A^3] (considered a charged atom and no polarization)  Interactions: yes
                 Anisotropic factor:    0.000 [-] (Relative), Radius:    0.680 [A], Framework-atom:  no
Pseudo Atom[   4] Name O_o2     Oxidation: +0       Element: O    pdb-name: O    Scat. Types:   9   8 Mass=15.999400000 B-factor:1.000   
                 Charge=-0.112000000         Polarization=0.000000000  [A^3] (considered a charged atom and no polarization)  Interactions: yes
                 Anisotropic factor:    0.000 [-] (Relative), Radius:    0.700 [A], Framework-atom:  no
Pseudo Atom[   5] Name O_com    Oxidation: +0       Element: -    pdb-name: O    Scat. Types:   0   8 Mass=0.000000000  B-factor:1.000   
                 Charge=0.224000000          Polarization=0.000000000  [A^3] (considered a charged atom and no polarization)  Interactions: yes
                 Anisotropic factor:    0.000 [-] (Relative), Radius:    0.700 [A], Framework-atom:  no
Pseudo Atom[   6] Name N_n2     Oxidation: +0       Element: N    pdb-name: N    Scat. Types:   8   7 Mass=14.006740000 B-factor:1.000   
                 Charge=-0.405000000         Polarization=0.000000000  [A^3] (considered a charged atom and no polarization)  Interactions: yes
                 Anisotropic factor:    0.000 [-] (Relative), Radius:    0.700 [A], Framework-atom:  no
Pseudo Atom[   7] Name N_com    Oxidation: +0       Element: -    pdb-name: N    Scat. Types:   0   7 Mass=0.000000000  B-factor:1.000   
                 Charge=0.810000000          Polarization=0.000000000  [A^3] (considered a charged atom and no polarization)  Interactions: yes
                 Anisotropic factor:    0.000 [-] (Relative), Radius:    0.700 [A], Framework-atom:  no
Pseudo Atom[   8] Name Ar       Oxidation: +0       Element: Ar   pdb-name: Ar   Scat. Types:  19  18 Mass=39.948000000 B-factor:1.000   
                 Charge=0.000000000          Polarization=0.000000000  [A^3] (considered a chargeless atom and no polarization)  Interactions: yes
                 Anisotropic factor:    0.000 [-] (Relative), Radius:    0.700 [A], Framework-atom:  no
Pseudo Atom[   9] Name CH4      Oxidation: +0       Element: C    pdb-name: C    Scat. Types:   7   6 Mass=16.042460000 B-factor:1.000   
                 Charge=0.000000000          Polarization=0.000000000  [A^3] (considered a chargeless atom and no polarization)  Interactions: yes
                 Anisotropic factor:    0.000 [-] (Relative), Radius:    1.000 [A], Framework-atom:  no
Pseudo Atom[  10] Name CH3      Oxidation: +0       Element: C    pdb-name: C    Scat. Types:   7   6 Mass=15.034520000 B-factor:1.000   
                 Charge=0.000000000          Polarization=0.000000000  [A^3] (considered a chargeless atom and no polarization)  Interactions: yes
                 Anisotropic factor:    0.000 [-] (Relative), Radius:    1.000 [A], Framework-atom:  no
Pseudo Atom[  11] Name CH2      Oxidation: +0       Element: C    pdb-name: C    Scat. Types:   7   6 Mass=14.026580000 B-factor:1.000   
                 Charge=0.000000000          Polarization=0.000000000  [A^3] (considered a chargeless atom and no polarization)  Interactions: yes
                 Anisotropic factor:    0.000 [-] (Relative), Radius:    1.000 [A], Framework-atom:  no
Pseudo Atom[  12] Name CH       Oxidation: +0       Element: C    pdb-name: C    Scat. Types:   7   6 Mass=13.018640000 B-factor:1.000   
                 Charge=0.000000000          Polarization=0.000000000  [A^3] (considered a chargeless atom and no polarization)  Interactions: yes
                 Anisotropic factor:    0.000 [-] (Relative), Radius:    1.000 [A], Framework-atom:  no
Pseudo Atom[  13] Name C        Oxidation: +0       Element: C    pdb-name: C    Scat. Types:   7   6 Mass=12.000000000 B-factor:1.000   
                 Charge=0.000000000          Polarization=0.000000000  [A^3] (considered a chargeless atom and no polarization)  Interactions: yes
                 Anisotropic factor:    0.000 [-] (Relative), Radius:    1.000 [A], Framework-atom:  no


Forcefield: ExampleMoleculeForceField
===========================================================================
Minimal distance: 1
CutOff VDW : 12.000000 (144.000000)
CutOff VDW switching on: 10.800000 (116.640000)
CutOff charge-charge : 12.000000 (144.000000)
CutOff charge-charge switching on: 7.800000 (60.840000)
CutOff charge-bonddipole : 12.000000 (144.000000)
CutOff charge-bondipole switching on: 8.400000 (70.560000)
CutOff bonddipole-bonddipole : 12.000000 (144.000000)
CutOff bonddipole-bondipole switching on: 9.000000 (81.000000)
Polarization is neglected
All potentials are shifted to zero at the Cutoff

General mixing rule: Lorentz-Berthelot mixing rules are used FIRST for cross terms
0 cross terms are overwritten using the individual mixing rules from the file 'force_field_mixing_rules.def'
and then 0 terms are overwritten using the specific interactions from the file 'force_field.def'

The force field and all the interactions:
     He -      He [LENNARD_JONES] p_0/k_B:  10.90000 [K], p_1: 2.64000 [A], shift/k_B:  -0.00494280 [K], tailcorrection: no
     He -   C_co2 [LENNARD_JONES] p_0/k_B:  18.06294 [K], p_1: 2.69250 [A], shift/k_B:  -0.00921806 [K], tailcorrection: no
     He -   O_co2 [LENNARD_JONES] p_0/k_B:  30.55837 [K], p_1: 2.82850 [A], shift/k_B:  -0.02095875 [K], tailcorrection: no
     He -    O_o2 [LENNARD_JONES] p_0/k_B:  24.04061 [K], p_1: 2.84250 [A], shift/k_B:  -0.01698416 [K], tailcorrection: no
     He -   O_com [ZERO_POTENTIAL]
     He -    N_n2 [LENNARD_JONES] p_0/k_B:  20.43155 [K], p_1: 2.97300 [A], shift/k_B:  -0.01889482 [K], tailcorrection: no
     He -   N_com [ZERO_POTENTIAL]
     He -      Ar [LENNARD_JONES] p_0/k_B:  36.77449 [K], p_1: 3.01000 [A], shift/k_B:  -0.03662773 [K], tailcorrection: no
     He -     CH4 [LENNARD_JONES] p_0/k_B:  41.56501 [K], p_1: 3.18000 [A], shift/k_B:  -0.05755893 [K], tailcorrection: no
     He -     CH3 [LENNARD_JONES] p_0/k_B:  34.31035 [K], p_1: 3.20000 [A], shift/k_B:  -0.04933343 [K], tailcorrection: no
     He -     CH2 [LENNARD_JONES] p_0/k_B:  24.70627 [K], p_1: 3.30000 [A], shift/k_B:  -0.04272436 [K], tailcorrection: no
     He -      CH [LENNARD_JONES] p_0/k_B:  13.61249 [K], p_1: 3.65500 [A], shift/k_B:  -0.04343978 [K], tailcorrection: no
     He -       C [LENNARD_JONES] p_0/k_B:   2.95296 [K], p_1: 4.51000 [A], shift/k_B:  -0.03319436 [K], tailcorrection: no
  C_co2 -   C_co2 [LENNARD_JONES] p_0/k_B:  29.93300 [K], p_1: 2.74500 [A], shift/k_B:  -0.01715199 [K], tailcorrection: no
  C_co2 -   O_co2 [LENNARD_JONES] p_0/k_B:  50.63981 [K], p_1: 2.88100 [A], shift/k_B:  -0.03878296 [K], tailcorrection: no
  C_co2 -    O_o2 [LENNARD_JONES] p_0/k_B:  39.83889 [K], p_1: 2.89500 [A], shift/k_B:  -0.03141127 [K], tailcorrection: no
  C_co2 -   O_com [ZERO_POTENTIAL]
  C_co2 -    N_n2 [LENNARD_JONES] p_0/k_B:  33.85815 [K], p_1: 3.02550 [A], shift/k_B:  -0.03477820 [K], tailcorrection: no
  C_co2 -   N_com [ZERO_POTENTIAL]
  C_co2 -      Ar [LENNARD_JONES] p_0/k_B:  60.94085 [K], p_1: 3.06250 [A], shift/k_B:  -0.06733139 [K], tailcorrection: no
  C_co2 -     CH4 [LENNARD_JONES] p_0/k_B:  68.87946 [K], p_1: 3.23250 [A], shift/k_B:  -0.10522708 [K], tailcorrection: no
  C_co2 -     CH3 [LENNARD_JONES] p_0/k_B:  56.85740 [K], p_1: 3.25250 [A], shift/k_B:  -0.09013451 [K], tailcorrection: no
  C_co2 -     CH2 [LENNARD_JONES] p_0/k_B:  40.94201 [K], p_1: 3.35250 [A], shift/k_B:  -0.07783014 [K], tailcorrection: no
  C_co2 -      CH [LENNARD_JONES] p_0/k_B:  22.55795 [K], p_1: 3.70750 [A], shift/k_B:  -0.07841175 [K], tailcorrection: no
  C_co2 -       C [LENNARD_JONES] p_0/k_B:   4.89351 [K], p_1: 4.56250 [A], shift/k_B:  -0.05895165 [K], tailcorrection: no
  O_co2 -   O_co2 [LENNARD_JONES] p_0/k_B:  85.67100 [K], p_1: 3.01700 [A], shift/k_B:  -0.08652638 [K], tailcorrection: no
  O_co2 -    O_o2 [LENNARD_JONES] p_0/k_B:  67.39832 [K], p_1: 3.03100 [A], shift/k_B:  -0.06998813 [K], tailcorrection: no
  O_co2 -   O_com [ZERO_POTENTIAL]
  O_co2 -    N_n2 [LENNARD_JONES] p_0/k_B:  57.28026 [K], p_1: 3.16150 [A], shift/k_B:  -0.07659340 [K], tailcorrection: no
  O_co2 -   N_com [ZERO_POTENTIAL]
  O_co2 -      Ar [LENNARD_JONES] p_0/k_B: 103.09802 [K], p_1: 3.19850 [A], shift/k_B:  -0.14782408 [K], tailcorrection: no
  O_co2 -     CH4 [LENNARD_JONES] p_0/k_B: 116.52834 [K], p_1: 3.36850 [A], shift/k_B:  -0.22793491 [K], tailcorrection: no
  O_co2 -     CH3 [LENNARD_JONES] p_0/k_B:  96.18975 [K], p_1: 3.38850 [A], shift/k_B:  -0.19495125 [K], tailcorrection: no
  O_co2 -     CH2 [LENNARD_JONES] p_0/k_B:  69.26454 [K], p_1: 3.48850 [A], shift/k_B:  -0.16712968 [K], tailcorrection: no
  O_co2 -      CH [LENNARD_JONES] p_0/k_B:  38.16290 [K], p_1: 3.84350 [A], shift/k_B:  -0.16462890 [K], tailcorrection: no
  O_co2 -       C [LENNARD_JONES] p_0/k_B:   8.27870 [K], p_1: 4.69850 [A], shift/k_B:  -0.11888367 [K], tailcorrection: no
   O_o2 -    O_o2 [LENNARD_JONES] p_0/k_B:  53.02300 [K], p_1: 3.04500 [A], shift/k_B:  -0.05660368 [K], tailcorrection: no
   O_o2 -   O_com [ZERO_POTENTIAL]
   O_o2 -    N_n2 [LENNARD_JONES] p_0/k_B:  45.06301 [K], p_1: 3.17550 [A], shift/k_B:  -0.06187515 [K], tailcorrection: no
   O_o2 -   N_com [ZERO_POTENTIAL]
   O_o2 -      Ar [LENNARD_JONES] p_0/k_B:  81.10834 [K], p_1: 3.21250 [A], shift/k_B:  -0.11938149 [K], tailcorrection: no
   O_o2 -     CH4 [LENNARD_JONES] p_0/k_B:  91.67413 [K], p_1: 3.38250 [A], shift/k_B:  -0.18383502 [K], tailcorrection: no
   O_o2 -     CH3 [LENNARD_JONES] p_0/k_B:  75.67354 [K], p_1: 3.40250 [A], shift/k_B:  -0.15720980 [K], tailcorrection: no
   O_o2 -     CH2 [LENNARD_JONES] p_0/k_B:  54.49117 [K], p_1: 3.50250 [A], shift/k_B:  -0.13467871 [K], tailcorrection: no
   O_o2 -      CH [LENNARD_JONES] p_0/k_B:  30.02317 [K], p_1: 3.85750 [A], shift/k_B:  -0.13236868 [K], tailcorrection: no
   O_o2 -       C [LENNARD_JONES] p_0/k_B:   6.51294 [K], p_1: 4.71250 [A], shift/k_B:  -0.09520548 [K], tailcorrection: no
  O_com -   O_com [ZERO_POTENTIAL]
  O_com -    N_n2 [ZERO_POTENTIAL]
  O_com -   N_com [ZERO_POTENTIAL]
  O_com -      Ar [ZERO_POTENTIAL]
  O_com -     CH4 [ZERO_POTENTIAL]
  O_com -     CH3 [ZERO_POTENTIAL]
  O_com -     CH2 [ZERO_POTENTIAL]
  O_com -      CH [ZERO_POTENTIAL]
  O_com -       C [ZERO_POTENTIAL]
   N_n2 -    N_n2 [LENNARD_JONES] p_0/k_B:  38.29800 [K], p_1: 3.30600 [A], shift/k_B:  -0.06695388 [K], tailcorrection: no
   N_n2 -   N_com [ZERO_POTENTIAL]
   N_n2 -      Ar [LENNARD_JONES] p_0/k_B:  68.93209 [K], p_1: 3.34300 [A], shift/k_B:  -0.12882767 [K], tailcorrection: no
   N_n2 -     CH4 [LENNARD_JONES] p_0/k_B:  77.91170 [K], p_1: 3.51300 [A], shift/k_B:  -0.19605171 [K], tailcorrection: no
   N_n2 -     CH3 [LENNARD_JONES] p_0/k_B:  64.31317 [K], p_1: 3.53300 [A], shift/k_B:  -0.16743696 [K], tailcorrection: no
   N_n2 -     CH2 [LENNARD_JONES] p_0/k_B:  46.31078 [K], p_1: 3.63300 [A], shift/k_B:  -0.14253201 [K], tailcorrection: no
   N_n2 -      CH [LENNARD_JONES] p_0/k_B:  25.51599 [K], p_1: 3.98800 [A], shift/k_B:  -0.13731894 [K], tailcorrection: no
   N_n2 -       C [LENNARD_JONES] p_0/k_B:   5.53520 [K], p_1: 4.84300 [A], shift/k_B:  -0.09526024 [K], tailcorrection: no
  N_com -   N_com [ZERO_POTENTIAL]
  N_com -      Ar [ZERO_POTENTIAL]
  N_com -     CH4 [ZERO_POTENTIAL]
  N_com -     CH3 [ZERO_POTENTIAL]
  N_com -     CH2 [ZERO_POTENTIAL]
  N_com -      CH [ZERO_POTENTIAL]
  N_com -       C [ZERO_POTENTIAL]
     Ar -      Ar [LENNARD_JONES] p_0/k_B: 124.07000 [K], p_1: 3.38000 [A], shift/k_B:  -0.24769804 [K], tailcorrection: no
     Ar -     CH4 [LENNARD_JONES] p_0/k_B: 140.23229 [K], p_1: 3.55000 [A], shift/k_B:  -0.37575039 [K], tailcorrection: no
     Ar -     CH3 [LENNARD_JONES] p_0/k_B: 115.75647 [K], p_1: 3.57000 [A], shift/k_B:  -0.32079374 [K], tailcorrection: no
     Ar -     CH2 [LENNARD_JONES] p_0/k_B:  83.35418 [K], p_1: 3.67000 [A], shift/k_B:  -0.27260937 [K], tailcorrection: no
     Ar -      CH [LENNARD_JONES] p_0/k_B:  45.92592 [K], p_1: 4.02500 [A], shift/k_B:  -0.26122023 [K], tailcorrection: no
     Ar -       C [LENNARD_JONES] p_0/k_B:   9.96273 [K], p_1: 4.88000 [A], shift/k_B:  -0.17943247 [K], tailcorrection: no
    CH4 -     CH4 [LENNARD_JONES] p_0/k_B: 158.50000 [K], p_1: 3.72000 [A], shift/k_B:  -0.56217796 [K], tailcorrection: no
    CH4 -     CH3 [LENNARD_JONES] p_0/k_B: 130.83577 [K], p_1: 3.74000 [A], shift/k_B:  -0.47921501 [K], tailcorrection: no
    CH4 -     CH2 [LENNARD_JONES] p_0/k_B:  94.21253 [K], p_1: 3.84000 [A], shift/k_B:  -0.40420524 [K], tailcorrection: no
    CH4 -      CH [LENNARD_JONES] p_0/k_B:  51.90857 [K], p_1: 4.19500 [A], shift/k_B:  -0.37827707 [K], tailcorrection: no
    CH4 -       C [LENNARD_JONES] p_0/k_B:  11.26055 [K], p_1: 5.05000 [A], shift/k_B:  -0.24880626 [K], tailcorrection: no
    CH3 -     CH3 [LENNARD_JONES] p_0/k_B: 108.00000 [K], p_1: 3.76000 [A], shift/k_B:  -0.40842485 [K], tailcorrection: no
    CH3 -     CH2 [LENNARD_JONES] p_0/k_B:  77.76889 [K], p_1: 3.86000 [A], shift/k_B:  -0.34420794 [K], tailcorrection: no
    CH3 -      CH [LENNARD_JONES] p_0/k_B:  42.84857 [K], p_1: 4.21500 [A], shift/k_B:  -0.32127575 [K], tailcorrection: no
    CH3 -       C [LENNARD_JONES] p_0/k_B:   9.29516 [K], p_1: 5.07000 [A], shift/k_B:  -0.21028090 [K], tailcorrection: no
    CH2 -     CH2 [LENNARD_JONES] p_0/k_B:  56.00000 [K], p_1: 3.96000 [A], shift/k_B:  -0.28891522 [K], tailcorrection: no
    CH2 -      CH [LENNARD_JONES] p_0/k_B:  30.85450 [K], p_1: 4.31500 [A], shift/k_B:  -0.26621710 [K], tailcorrection: no
    CH2 -       C [LENNARD_JONES] p_0/k_B:   6.69328 [K], p_1: 5.17000 [A], shift/k_B:  -0.17012512 [K], tailcorrection: no
     CH -      CH [LENNARD_JONES] p_0/k_B:  17.00000 [K], p_1: 4.67000 [A], shift/k_B:  -0.23540268 [K], tailcorrection: no
     CH -       C [LENNARD_JONES] p_0/k_B:   3.68782 [K], p_1: 5.52500 [A], shift/k_B:  -0.13918063 [K], tailcorrection: no
      C -       C [LENNARD_JONES] p_0/k_B:   0.80000 [K], p_1: 6.38000 [A], shift/k_B:  -0.07064236 [K], tailcorrection: no


MoleculeDefinitions:
===========================================================================
Component 0 [methane] (Adsorbate molecule)

	MoleculeDefinitions: ExampleDefinitions
	Component contains no atoms with charge
	Component contains no atoms with point dipoles (polarization)
	Component has a net charge of 0.000000

	Ideal chain Rosenbluth weight: 1
	Ideal chain total energy: 0.000000

	Critical temparure [K]: 190.564000
	Critical pressure [Pa]: 4599200.000000
	Acentric factor [-]: 0.011420

	RXMC partition factor ln(q/V) [ln(A^(-3))]:       0.0000000000

	Vapour=stable, Liquid=metastable

	MolFraction:           1.0000000000 [-]
	Compressibility:       0.0000000000 [-]

	Density of the bulk fluid phase:       0.0000000000 [kg/m^3]


	Amount of excess molecules:       0.0000000000 [-]

	Conversion factor molecules/unit cell -> mol/kg:                inf [-]
	Conversion factor molecules/unit cell -> mg/g:                inf [-]
	Conversion factor molecules/unit cell -> cm^3 STP/gr:                inf [-]
	Conversion factor molecules/unit cell -> cm^3 STP/cm^3:       0.0372192747 [-]
	Conversion factor mol/kg -> cm^3 STP/gr:      22.4139757476 [-]
	Conversion factor mol/kg -> cm^3 STP/cm^3:       0.0000000000 [-]

	Partial pressure: -16605402.00000000000000 [Pa]
	                    -124540.51499999999942 [Torr]
	                       -166.05402000000001 [bar]
	                       -163.88257586972614 [atm]

	Fugacity coefficient:      -1.0000000000 [-]

	Partial fugacity:  16605402.00000000000000 [Pa]
	                     124540.51499999999942 [Torr]
	                        166.05402000000001 [bar]
	                        163.88257586972614 [atm]

	Molecule contains 1 number of atoms
		atom:    0  is of type:    9 [       CH4] (group: 0)

	Molecule contains 0 chirality centers

	Molecule contains 1 number of groups

		group: 0 containing: 1 elements
		-------------------------------------------------
		the group is modelled as flexible, i.e. no constraints
		Mass: 16.042460 [a.u.]
		Mass: 0.026639 [kg/m^3]

		Rotational Degrees of freedom: 0
		Diagonalized inertia vector:       0.0000000000
		                                   0.0000000000
		                                   0.0000000000
		element: 0 atom: 0 [       CH4] Charge:  0.000000 Anisotropy: 0.000000 Connectivity: 0 ()

		Dipole:           0.0000000000 [D]
		Quadrupole:       0.0000000000       0.0000000000       0.0000000000 [D Angstrom]
		Quadrupole tensor [D Angstrom]
				       0.0000000000       0.0000000000       0.0000000000
				       0.0000000000       0.0000000000       0.0000000000
				       0.0000000000       0.0000000000       0.0000000000

	Starting bead for growth               : 0

	Degrees of freedom                     : 0
	Translational degrees of freedom       : 0
	Rotational degrees of freedom          : 0
	Vibrational degrees of freedom         : 0
	Constraint degrees of freedom          : 0

	Number of atoms                        : 1

	Number of constraint bonds             : 0
	Number of constraint bends             : 0
	Number of constraint inversion bends   : 0
	Number of constraint torsions          : 0
	Number of constraint improper torsions : 0
	Number of constraint improper torsions : 0

	Number of bonds                        : 0
	Number of Urey-Bradleys                : 0
	Number of bends                        : 0
	Number of inversion bends              : 0
	Number of torsions                     : 0
	Number of improper torsions            : 0
	Number of improper torsions            : 0

	Number of bond/bond cross terms        : 0
	Number of bond/bend cross terms        : 0
	Number of bend/bend cross terms        : 0
	Number of stretch/torsion cross terms  : 0
	Number of bend/torsion cross terms     : 0

	Number of charges                      : 0
	Number of bond-dipoles                 : 0

	Number of intra Van der Waals                             : 0
	Number of intra charge-charge Coulomb                     : 0
	Number of intra charge-bonddipole Coulomb                 : 0
	Number of intra bonddipole-bonddipole Coulomb             : 0

	Number of excluded intra charge-charge Coulomb                     : 0
	Number of excluded intra charge-bonddipole Coulomb                 : 0
	Number of excluded intra bonddipole-bonddipole Coulomb             : 0

	Number of cbmc-config moves                               : 0

	Particle Moves:             
		ProbabilityTranslationMove:                  32.258065
			TranslationDirection:      XYZ
		Percentage of random translation moves:            0.000000
		Percentage of rotation moves:                      32.258065
		Percentage of random rotation moves:               0.000000
		Percentage of partial reinsertion moves:           0.000000
		Percentage of reinsertion moves:                   32.258065
		Percentage of reinsertion-in-place moves:          0.000000
		Percentage of reinsertion-in-plane moves:          0.000000
		Percentage of identity-change moves:               0.000000
		Percentage of swap (insert/delete) moves:          0.000000
		Percentage of CF swap lambda moves:                0.000000
		Percentage of CB/CFMC swap lambda moves:           0.000000
		Percentage of Widom insertion moves:               0.000000
		Percentage of CF-Widom insertion moves:            0.000000
		Percentage of Gibbs Widom insertion moves:         0.000000
		Percentage of surface-area moves:                  0.000000
		Percentage of Gibbs particle-transfer moves:       0.000000
		Percentage of Gibbs identity-change moves:         0.000000
		Percentage of CF Gibbs lambda-transfer moves:      0.000000
		Percentage of CB/CFMC Gibbs lambda-transfer moves: 0.000000
		Percentage of exchange frac./int. particle moves:  0.000000
		Percentage of fractional mol. to other box moves:  0.000000
		Percentage of lambda-change moves:                 0.000000
		Percentage of fractional to integer moves:         0.000000

	System Moves:
		Percentage of parallel-tempering moves:            0.000000
		Percentage of hyper-parallel-tempering moves:      0.000000
		Percentage of parallel-mol-fraction moves:         0.000000
			   Component A: 0 B: 1
		Percentage of chiral inversion moves:              0.000000
		Percentage of Hybrid-NVE moves:                    0.000000
		Percentage of Hybrid-NPH moves:                    0.000000
		Percentage of Hybrid-NPHPR moves:                  0.000000
		Percentage of volume-change moves:                 3.225806
		Percentage of box-shape-change moves:              0.000000
		Percentage of Gibbs volume-change moves:           0.000000
		Percentage of framework-change moves:              0.000000
		Percentage of framework-shift moves:               0.000000
		Percentage of reactive MC moves:                   0.000000

	Moves are restricted: No
	No biased sampling used for this component


	number of identity-config changes: 1
	--------------------------------------------
	nr fixed 1: 0 

	Number of pockets blocked in a unitcell: 0
		Pockets are NOT blocked for this component



System Properties
===========================================================================
Unit cell size: 100.000000 100.000000 100.000000
Cell angles (radians)  alpha: 1.570796 beta: 1.570796 gamma: 1.570796
Cell angles (degrees)  alpha: 90.000000 beta: 90.000000 gamma: 90.000000
Number of unitcells [a]: 1
Number of unitcells [b]: 1
Number of unitcells [c]: 1

RECTANGULAR Boundary conditions: alpha=beta=gamma=90 degrees

Cartesian axis A is collinear with crystallographic axis a
Cartesian axis B is collinear with (axb)xA
Cartesian axis C is collinear with (axb)

lengths of cell vectors:
100.00000 100.00000 100.00000
cosines of cell angles:
  0.00000   0.00000   0.00000
perpendicular cell widths:
100.00000 100.00000 100.00000
volume of the cell: 1000000.000000000000 (A^3)

Orthogonalization matrix Box
Transforms fractional coordinates abc into orthonormal Cartesian coordinates xyz
Deorthogonalization matrix InverseBox
Transforms orthonormal Cartesian coordinates xyz into fractional coordinates xyz

Box[0]:
	  100.000000000000     0.000000000000     0.000000000000
	    0.000000000000   100.000000000000     0.000000000000
	    0.000000000000     0.000000000000   100.000000000000

Inverse box[0]:
	    0.010000000000    -0.000000000000    -0.000000000000
	    0.000000000000     0.010000000000    -0.000000000000
	    0.000000000000     0.000000000000     0.010000000000


Unitcell box[0]:
	  100.000000000000     0.000000000000     0.000000000000
	    0.000000000000   100.000000000000     0.000000000000
	    0.000000000000     0.000000000000   100.000000000000

Unitcell inverse box[0]:
	    0.010000000000    -0.000000000000    -0.000000000000
	    0.000000000000     0.010000000000    -0.000000000000
	    0.000000000000     0.000000000000     0.010000000000

lengths of cell vectors (inverse box):
  0.01000   0.01000   0.01000
cosines of cell angles (inverse box):
 -0.00000  -0.00000  -0.00000
perpendicular cell widths (inverse):
  0.01000   0.01000   0.01000
volume of the cell: 1000000.000000000000 (A^3)

No replicas are used
Framework is simulated as 'rigid'
Number of framework atoms: 0
Number of framework atoms in the unit cell: 0
Framework Mass:     0.000000000000 [g/mol]
Framework Density:     0.000000000000 [kg/m^3]                inf [cm^3/g]
Helium void fraction:    0.00000000
Available pore volume:    0.00000000 [A^3]           nan [cm^3/g]
Conversion factor from molecule/unit cell -> kmol/m^3: 0.00166054, kmol/m^3 accesible pore volume: inf

Number Of Frameworks (per system): 0
----------------------------------------------------------------------

Current Atom Status
===========================================================================
Number of framework atoms        : 0
Number of cations molecules      : 0
Number of adsorbate molecules    : 100
Component    0 :  100 molecules
Pseudo Atoms    0 [    UNIT]:    0 atoms
Pseudo Atoms    1 [      He]:    0 atoms
Pseudo Atoms    2 [   C_co2]:    0 atoms
Pseudo Atoms    3 [   O_co2]:    0 atoms
Pseudo Atoms    4 [    O_o2]:    0 atoms
Pseudo Atoms    5 [   O_com]:    0 atoms
Pseudo Atoms    6 [    N_n2]:    0 atoms
Pseudo Atoms    7 [   N_com]:    0 atoms
Pseudo Atoms    8 [      Ar]:    0 atoms
Pseudo Atoms    9 [     CH4]:  100 atoms
Pseudo Atoms   10 [     CH3]:    0 atoms
Pseudo Atoms   11 [     CH2]:    0 atoms
Pseudo Atoms   12 [      CH]:    0 atoms
Pseudo Atoms   13 [       C]:    0 atoms


Current (initial full energy) Energy Status
===========================================================================

Internal energy:
Host stretch energy:                                            0.00000000
Host UreyBradley energy:                                        0.00000000
Host bend energy:                                               0.00000000
Host inversion-bend energy:                                     0.00000000
Host torsion energy:                                            0.00000000
Host improper torsion energy:                                   0.00000000
Host out-of-plane energy:                                       0.00000000
Host stretch/stretch energy:                                    0.00000000
Host bend/bend energy:                                          0.00000000
Host stretch/bend energy:                                       0.00000000
Host stretch/torsion energy:                                    0.00000000
Host bend/torsion energy:                                       0.00000000

Adsorbate stretch energy:                                       0.00000000
Adsorbate UreyBradley energy:                                   0.00000000
Adsorbate bend energy:                                          0.00000000
Adsorbate inversion-bend energy:                                0.00000000
Adsorbate torsion energy:                                       0.00000000
Adsorbate improper torsion energy:                              0.00000000
Adsorbate out-of-plane energy:                                  0.00000000
Adsorbate stretch/stretch energy:                               0.00000000
Adsorbate bend/bend energy:                                     0.00000000
Adsorbate stretch/bend energy:                                  0.00000000
Adsorbate stretch/torsion energy:                               0.00000000
Adsorbate bend/torsion energy:                                  0.00000000
Adsorbate intra VDW energy:                                     0.00000000
Adsorbate intra charge-charge Coulomb energy:                   0.00000000
Adsorbate intra charge-bonddipole Coulomb energy:               0.00000000
Adsorbate intra bonddipole-bonddipole Coulomb energy:           0.00000000

Cation stretch energy:                                          0.00000000
Cation UreyBradley energy:                                      0.00000000
Cation bend energy:                                             0.00000000
Cation inversion-bend energy:                                   0.00000000
Cation torsion energy:                                          0.00000000
Cation improper torsion energy:                                 0.00000000
Cation out-of-plane energy:                                     0.00000000
Cation stretch/stretch energy:                                  0.00000000
Cation bend/bend energy:                                        0.00000000
Cation stretch/bend energy:                                     0.00000000
Cation stretch/torsion energy:                                  0.00000000
Cation bend/torsion energy:                                     0.00000000
Cation intra VDW energy:                                        0.00000000
Cation intra charge-charge Coulomb energy:                      0.00000000
Cation intra charge-bonddipole Coulomb energy:                  0.00000000
Cation intra bonddipole-bonddipole Coulomb energy:              0.00000000

Host/Host energy:                                             0.00000000
	Host/Host VDW energy:                                         0.00000000
	Host/Host Coulomb energy:                                     0.00000000
	Host/Host charge-charge Real energy:                          0.00000000
	Host/Host charge-charge Fourier energy:                       0.00000000
	Host/Host charge-bonddipole Real energy:                      0.00000000
	Host/Host charge-bonddipole Fourier energy:                   0.00000000
	Host/Host bondipole-bonddipole Real energy:                   0.00000000
	Host/Host bondipole-bonddipole Fourier energy:                0.00000000

Host/Adsorbate energy:                                        0.00000000
	Host/Adsorbate VDW energy:                                    0.00000000
	Host/Adsorbate Coulomb energy:                                0.00000000
	Host/Adsorbate charge-charge Real energy:                     0.00000000
	Host/Adsorbate charge-charge Fourier energy:                  0.00000000
	Host/Adsorbate charge-bonddipole Real energy:                 0.00000000
	Host/Adsorbate charge-bonddipole Fourier energy:              0.00000000
	Host/Adsorbate bondipole-bonddipole Real energy:              0.00000000
	Host/Adsorbate bondipole-bonddipole Fourier energy:           0.00000000

Host/Cation energy:                                           0.00000000
	Host/Cation VDW energy:                                       0.00000000
	Host/Cation Coulomb energy:                                   0.00000000
	Host/Cation charge-charge Real energy:                        0.00000000
	Host/Cation charge-charge Fourier energy:                     0.00000000
	Host/Cation charge-bonddipole Real energy:                    0.00000000
	Host/Cation charge-bonddipole Fourier energy:                 0.00000000
	Host/Cation bondipole-bonddipole Real energy:                 0.00000000
	Host/Cation bondipole-bonddipole Fourier energy:              0.00000000

Adsorbate/Adsorbate energy:                                     -546.12602425
	Adsorbate/Adsorbate VDW energy:                                 -546.12602425
	Adsorbate/Adsorbate Coulomb energy:                                0.00000000
	Adsorbate/Adsorbate charge-charge Real energy:                     0.00000000
	Adsorbate/Adsorbate charge-charge Fourier energy:                  0.00000000
	Adsorbate/Adsorbate charge-bonddipole Real energy:                 0.00000000
	Adsorbate/Adsorbate charge-bonddipole Fourier energy:              0.00000000
	Adsorbate/Adsorbate bondipole-bonddipole Real energy:              0.00000000
	Adsorbate/Adsorbate bondipole-bonddipole Fourier energy:           0.00000000

Adsorbate/Cation energy:                                           0.00000000
	Adsorbate/Cation VDW energy:                                       0.00000000
	Adsorbate/Cation Coulomb energy:                                   0.00000000
	Adsorbate/Cation charge-charge Real energy:                        0.00000000
	Adsorbate/Cation charge-charge Fourier energy:                     0.00000000
	Adsorbate/Cation charge-bonddipole Real energy:                    0.00000000
	Adsorbate/Cation charge-bonddipole Fourier energy:                 0.00000000
	Adsorbate/Cation bondipole-bonddipole Real energy:                 0.00000000
	Adsorbate/Cation bondipole-bonddipole Fourier energy:              0.00000000

Cation/Cation energy:                                           0.00000000
	Cation/Cation VDW energy:                                       0.00000000
	Cation/Cation Coulomb energy:                                   0.00000000
	Cation/Cation charge-charge Real energy:                        0.00000000
	Cation/Cation charge-charge Fourier energy:                     0.00000000
	Cation/Cation charge-bonddipole Real energy:                    0.00000000
	Cation/Cation charge-bonddipole Fourier energy:                 0.00000000
	Cation/Cation bondipole-bonddipole Real energy:                 0.00000000
	Cation/Cation bondipole-bonddipole Fourier energy:              0.00000000

Polarization energy:
	Host polarization energy:                                     0.00000000
	Adsorbate polarization energy:                                0.00000000
	Cation polarization energy:                                   0.00000000
	Host back-polarization energy:                                     0.00000000
	Adsorbate back-polarization energy:                                0.00000000
	Cation back-polarization energy:                                   0.00000000

Tail-correction energy:                                       0.00000000

Distance constraints energy:                                  0.00000000
Angle constraints energy:                                     0.00000000
Dihedral constraints energy:                                  0.00000000
Inversion-bend constraints energy:                            0.00000000
Out-of-plane distance constraints energy:                     0.00000000
Exclusion constraints energy:                                 0.00000000

===================================================================
Total energy:  -546.126024248595
	Total Van der Waals: -546.126024
	Total Coulomb: 0.000000

	Total Polarization: 0.000000







+++++++++++++++++++++++++++++++++++++++++++++++++++++++++++++++++++++++++
Starting simulation
+++++++++++++++++++++++++++++++++++++++++++++++++++++++++++++++++++++++++

[Init] Current cycle: 0 out of 200
========================================================================================================

Net charge: 0 (F: 0, A: 0, C: 0)
Current Box: 100.00000   0.00000   0.00000 [A]
               0.00000 100.00000   0.00000 [A]
               0.00000   0.00000 100.00000 [A]
Box-lengths: 100.00000 100.00000 100.00000 Box-angles:   90.00000  90.00000  90.00000 [degrees]
Volume: 1000000.00000 [A^3]

Amount of molecules per component:
----------------------------------------------------------------------------------------------------------------------------------------------------
Component 0 (methane), current number of integer/fractional/reaction molecules: 100/0/0, density:   2.66391 [kg/m^3]
----------------------------------------------------------------------------------------------------------------------------------------------------
Degrees of freedom: 300 0 300 0
Number of Framework-atoms:      0
Number of Adsorbates:         100 (100 integer, 0 fractional, 0 reaction)
Number of Cations:              0 (0 integer, 0 fractional, 0 reaction

Current total potential energy:              -546.1260242486 [K]
	Current Host-Host energy:                     0.0000000000 [K]
	Current Host-Adsorbate energy:                0.0000000000 [K]
	Current Host-Cation energy:                   0.0000000000 [K]
	Current Adsorbate-Adsorbate energy:        -546.1260242486 [K]
	Current Cation-Cation energy:                 0.0000000000 [K]
	Current Adsorbate-Cation energy:              0.0000000000 [K]



[Init] Current cycle: 100 out of 200
========================================================================================================

Net charge: 0 (F: 0, A: 0, C: 0)
Current Box:  71.14560   0.00000   0.00000 [A]
               0.00000  71.14560   0.00000 [A]
               0.00000   0.00000  71.14560 [A]
Box-lengths:  71.14560  71.14560  71.14560 Box-angles:   90.00000  90.00000  90.00000 [degrees]
Volume: 360117.46637 [A^3]

Amount of molecules per component:
----------------------------------------------------------------------------------------------------------------------------------------------------
Component 0 (methane), current number of integer/fractional/reaction molecules: 100/0/0, density:   7.39735 [kg/m^3]
----------------------------------------------------------------------------------------------------------------------------------------------------
Degrees of freedom: 300 0 300 0
Number of Framework-atoms:      0
Number of Adsorbates:         100 (100 integer, 0 fractional, 0 reaction)
Number of Cations:              0 (0 integer, 0 fractional, 0 reaction

Current total potential energy:             -1205.8810273016 [K]
	Current Host-Host energy:                     0.0000000000 [K]
	Current Host-Adsorbate energy:                0.0000000000 [K]
	Current Host-Cation energy:                   0.0000000000 [K]
	Current Adsorbate-Adsorbate energy:       -1205.8810273016 [K]
	Current Cation-Cation energy:                 0.0000000000 [K]
	Current Adsorbate-Cation energy:              0.0000000000 [K]



Average Properties at Current cycle: 0 out of 5000
========================================================================================

Framework surface area:                nan [m^2/g]        0.0000000000 [m^2/cm^3]       0.0000000000 [A^2]
	Cation surface area:                                nan [m^2/g]        0.0000000000 [m^2/cm^3]       0.0000000000 [A^2]
Compressibility:       0.8317811620 [-]
Henry coefficients
	Component 0: 0 [mol/kg/Pa] (Rosenbluth factor new: 0 [-])
Energy <U_gh>_1-<U_h>_0 from Widom


Current cycle: 0 out of 5000
========================================================================================================

Net charge: 0 (F: 0, A: 0, C: 0)
Current Box:  48.67531   0.00000   0.00000 [A]   Average Box:  48.67531   0.00000   0.00000 [A]
               0.00000  48.67531   0.00000 [A]                  0.00000  48.67531   0.00000 [A]
               0.00000   0.00000  48.67531 [A]                  0.00000   0.00000  48.67531 [A]
Box-lengths:   48.67531  48.67531  48.67531 [A] Average:  48.67531  48.67531  48.67531 [A]
Box-angles:   90.00000  90.00000  90.00000 [degrees] Average:  90.00000  90.00000  90.00000 [degrees]
Volume: 115325.72931 [A^3] Average Volume: 115325.72931 [A^3]

Current Stress:   2.89729   0.06939   0.04917 [MPa]   Average Stress: 2897.28693  69.39153  49.17147 [kPa]
                  0.06939   2.86381  -0.11847 [MPa]                    69.39153 2863.80696 -118.47236 [kPa]
                  0.04917  -0.11847   3.14124 [MPa]                    49.17147 -118.47236 3141.24430 [kPa]
Average pressure:    2967.4460625732 [kPa]      29.2864156188 [atm]      29.6744606257 [bar]
	Ideal gas part:      3567.5802702451 [kPa]      35.2092797458 [atm]      35.6758027025 [bar]
	excess part:         -600.1342076718 [kPa]      -5.9228641270 [atm]      -6.0013420767 [bar]
	tail correction:       0.0000000000 [kPa]       0.0000000000 [atm]       0.0000000000 [bar]

Amount of molecules per component:
----------------------------------------------------------------------------------------------------------------------------------------------------
Component 0 (methane), current number of integer/fractional/reaction molecules: 100/0/0 (average 100.00000/  0.00000), density:  23.09905 (average  23.09905) kg/m^3]
----------------------------------------------------------------------------------------------------------------------------------------------------
Degrees of freedom: 300 0 300 0
Number of Framework-atoms:      0
Number of Adsorbates:         100 (100 integer, 0 fractional, 0 reaction)
Number of Cations:              0 (0 integer, 0 fractional, 0 reaction)

Current total potential energy:             -4838.4209754111 [K]  (avg.       -4838.4209754111)
	Current Host-Host energy:                     0.0000000000 [K]  (avg.           0.0000000000)
	Current Host-Adsorbate energy:                0.0000000000 [K]  (avg.           0.0000000000)
	Current Host-Cation energy:                   0.0000000000 [K]  (avg.           0.0000000000)
	Current Adsorbate-Adsorbate energy:       -4838.4209754111 [K]  (avg.       -4838.4209754111)
	Current Cation-Cation energy:                 0.0000000000 [K]  (avg.           0.0000000000)
	Current Adsorbate-Cation energy:              0.0000000000 [K]  (avg.           0.0000000000)



Current cycle: 100 out of 5000
========================================================================================================

Net charge: 0 (F: 0, A: 0, C: 0)
Current Box:  42.49235   0.00000   0.00000 [A]   Average Box:  45.51892   0.00000   0.00000 [A]
               0.00000  42.49235   0.00000 [A]                  0.00000  45.51892   0.00000 [A]
               0.00000   0.00000  42.49235 [A]                  0.00000   0.00000  45.51892 [A]
Box-lengths:   42.49235  42.49235  42.49235 [A] Average:  45.51892  45.51892  45.51892 [A]
Box-angles:   90.00000  90.00000  90.00000 [degrees] Average:  90.00000  90.00000  90.00000 [degrees]
Volume: 76724.15316 [A^3] Average Volume: 94708.46647 [A^3]

Current Stress:   4.52563   0.28085   0.64081 [MPa]   Average Stress: 4160.69034  97.38897  51.78686 [kPa]
                  0.28085   5.74725   0.53463 [MPa]                    97.38897 4249.00204 -71.88190 [kPa]
                  0.64081   0.53463   5.79500 [MPa]                    51.78686 -71.88190 4171.37059 [kPa]
Average pressure:    4193.6876561301 [kPa]      41.3884792117 [atm]      41.9368765613 [bar]
	Ideal gas part:      4399.1398847496 [kPa]      43.4161350580 [atm]      43.9913988475 [bar]
	excess part:         -205.4522286195 [kPa]      -2.0276558462 [atm]      -2.0545222862 [bar]
	tail correction:       0.0000000000 [kPa]       0.0000000000 [atm]       0.0000000000 [bar]

Amount of molecules per component:
----------------------------------------------------------------------------------------------------------------------------------------------------
Component 0 (methane), current number of integer/fractional/reaction molecules: 100/0/0 (average 100.00000/  0.00000), density:  34.72068 (average  28.48316) kg/m^3]
----------------------------------------------------------------------------------------------------------------------------------------------------
Degrees of freedom: 300 0 300 0
Number of Framework-atoms:      0
Number of Adsorbates:         100 (100 integer, 0 fractional, 0 reaction)
Number of Cations:              0 (0 integer, 0 fractional, 0 reaction)

Current total potential energy:             -7087.0087412636 [K]  (avg.       -5338.5195099643)
	Current Host-Host energy:                     0.0000000000 [K]  (avg.           0.0000000000)
	Current Host-Adsorbate energy:                0.0000000000 [K]  (avg.           0.0000000000)
	Current Host-Cation energy:                   0.0000000000 [K]  (avg.           0.0000000000)
	Current Adsorbate-Adsorbate energy:       -7087.0087412636 [K]  (avg.       -5338.5195099643)
	Current Cation-Cation energy:                 0.0000000000 [K]  (avg.           0.0000000000)
	Current Adsorbate-Cation energy:              0.0000000000 [K]  (avg.           0.0000000000)



Current cycle: 200 out of 5000
========================================================================================================

Net charge: 0 (F: 0, A: 0, C: 0)
Current Box:  37.30089   0.00000   0.00000 [A]   Average Box:  42.57929   0.00000   0.00000 [A]
               0.00000  37.30089   0.00000 [A]                  0.00000  42.57929   0.00000 [A]
               0.00000   0.00000  37.30089 [A]                  0.00000   0.00000  42.57929 [A]
Box-lengths:   37.30089  37.30089  37.30089 [A] Average:  42.57929  42.57929  42.57929 [A]
Box-angles:   90.00000  90.00000  90.00000 [degrees] Average:  90.00000  90.00000  90.00000 [degrees]
Volume: 51898.84795 [A^3] Average Volume: 78630.32816 [A^3]

Current Stress:   7.92699   0.15776   0.54169 [MPa]   Average Stress: 5222.01310  56.42535  32.82211 [kPa]
                  0.15776   7.54894   0.38140 [MPa]                    56.42535 5202.69311 -42.60327 [kPa]
                  0.54169   0.38140   5.33382 [MPa]                    32.82211 -42.60327 5100.57740 [kPa]
Average pressure:    5175.0945364207 [kPa]      51.0742120545 [atm]      51.7509453642 [bar]
	Ideal gas part:      5529.9844416546 [kPa]      54.5767031005 [atm]      55.2998444165 [bar]
	excess part:         -354.8899052339 [kPa]      -3.5024910460 [atm]      -3.5488990523 [bar]
	tail correction:       0.0000000000 [kPa]       0.0000000000 [atm]       0.0000000000 [bar]

Amount of molecules per component:
----------------------------------------------------------------------------------------------------------------------------------------------------
Component 0 (methane), current number of integer/fractional/reaction molecules: 100/0/0 (average 100.00000/  0.00000), density:  51.32898 (average  35.80505) kg/m^3]
----------------------------------------------------------------------------------------------------------------------------------------------------
Degrees of freedom: 300 0 300 0
Number of Framework-atoms:      0
Number of Adsorbates:         100 (100 integer, 0 fractional, 0 reaction)
Number of Cations:              0 (0 integer, 0 fractional, 0 reaction)

Current total potential energy:             -9879.1821939450 [K]  (avg.       -6807.5694428590)
	Current Host-Host energy:                     0.0000000000 [K]  (avg.           0.0000000000)
	Current Host-Adsorbate energy:                0.0000000000 [K]  (avg.           0.0000000000)
	Current Host-Cation energy:                   0.0000000000 [K]  (avg.           0.0000000000)
	Current Adsorbate-Adsorbate energy:       -9879.1821939450 [K]  (avg.       -6807.5694428590)
	Current Cation-Cation energy:                 0.0000000000 [K]  (avg.           0.0000000000)
	Current Adsorbate-Cation energy:              0.0000000000 [K]  (avg.           0.0000000000)



Current cycle: 300 out of 5000
========================================================================================================

Net charge: 0 (F: 0, A: 0, C: 0)
Current Box:  35.59223   0.00000   0.00000 [A]   Average Box:  40.55867   0.00000   0.00000 [A]
               0.00000  35.59223   0.00000 [A]                  0.00000  40.55867   0.00000 [A]
               0.00000   0.00000  35.59223 [A]                  0.00000   0.00000  40.55867 [A]
Box-lengths:   35.59223  35.59223  35.59223 [A] Average:  40.55867  40.55867  40.55867 [A]
Box-angles:   90.00000  90.00000  90.00000 [degrees] Average:  90.00000  90.00000  90.00000 [degrees]
Volume: 45088.49180 [A^3] Average Volume: 68669.25299 [A^3]

Current Stress:   5.44123   0.42457   0.29574 [MPa]   Average Stress: 6146.42495 -42.92749  96.53420 [kPa]
                  0.42457   6.94930   0.94865 [MPa]                   -42.92749 5961.86110  24.77481 [kPa]
                  0.29574   0.94865   6.16880 [MPa]                    96.53420  24.77481 5879.14747 [kPa]
Average pressure:    5995.8111747681 [kPa]      59.1740555121 [atm]      59.9581117477 [bar]
	Ideal gas part:      6508.0688999995 [kPa]      64.2296461880 [atm]      65.0806890000 [bar]
	excess part:         -512.2577252315 [kPa]      -5.0555906759 [atm]      -5.1225772523 [bar]
	tail correction:       0.0000000000 [kPa]       0.0000000000 [atm]       0.0000000000 [bar]

Amount of molecules per component:
----------------------------------------------------------------------------------------------------------------------------------------------------
Component 0 (methane), current number of integer/fractional/reaction molecules: 100/0/0 (average 100.00000/  0.00000), density:  59.08193 (average  42.13787) kg/m^3]
----------------------------------------------------------------------------------------------------------------------------------------------------
Degrees of freedom: 300 0 300 0
Number of Framework-atoms:      0
Number of Adsorbates:         100 (100 integer, 0 fractional, 0 reaction)
Number of Cations:              0 (0 integer, 0 fractional, 0 reaction)

Current total potential energy:            -12063.9180863801 [K]  (avg.       -8020.5801462102)
	Current Host-Host energy:                     0.0000000000 [K]  (avg.           0.0000000000)
	Current Host-Adsorbate energy:                0.0000000000 [K]  (avg.           0.0000000000)
	Current Host-Cation energy:                   0.0000000000 [K]  (avg.           0.0000000000)
	Current Adsorbate-Adsorbate energy:      -12063.9180863801 [K]  (avg.       -8020.5801462102)
	Current Cation-Cation energy:                 0.0000000000 [K]  (avg.           0.0000000000)
	Current Adsorbate-Cation energy:              0.0000000000 [K]  (avg.           0.0000000000)



Current cycle: 400 out of 5000
========================================================================================================

Net charge: 0 (F: 0, A: 0, C: 0)
Current Box:  32.92314   0.00000   0.00000 [A]   Average Box:  38.92225   0.00000   0.00000 [A]
               0.00000  32.92314   0.00000 [A]                  0.00000  38.92225   0.00000 [A]
               0.00000   0.00000  32.92314 [A]                  0.00000   0.00000  38.92225 [A]
Box-lengths:   32.92314  32.92314  32.92314 [A] Average:  38.92225  38.92225  38.92225 [A]
Box-angles:   90.00000  90.00000  90.00000 [degrees] Average:  90.00000  90.00000  90.00000 [degrees]
Volume: 35686.47525 [A^3] Average Volume: 61360.21709 [A^3]

Current Stress:  11.74576  -1.13568   1.39044 [MPa]   Average Stress: 6968.25239  19.59863  44.26603 [kPa]
                 -1.13568  10.58296   0.36859 [MPa]                    19.59863 6813.57141  29.87626 [kPa]
                  1.39044   0.36859   9.50898 [MPa]                    44.26603  29.87626 6848.46296 [kPa]
Average pressure:    6876.7622527813 [kPa]      67.8683666694 [atm]      68.7676225278 [bar]
	Ideal gas part:      7505.2557006313 [kPa]      74.0711147361 [atm]      75.0525570063 [bar]
	excess part:         -628.4934478500 [kPa]      -6.2027480666 [atm]      -6.2849344785 [bar]
	tail correction:       0.0000000000 [kPa]       0.0000000000 [atm]       0.0000000000 [bar]

Amount of molecules per component:
----------------------------------------------------------------------------------------------------------------------------------------------------
Component 0 (methane), current number of integer/fractional/reaction molecules: 100/0/0 (average 100.00000/  0.00000), density:  74.64775 (average  48.59436) kg/m^3]
----------------------------------------------------------------------------------------------------------------------------------------------------
Degrees of freedom: 300 0 300 0
Number of Framework-atoms:      0
Number of Adsorbates:         100 (100 integer, 0 fractional, 0 reaction)
Number of Cations:              0 (0 integer, 0 fractional, 0 reaction)

Current total potential energy:            -15837.6750130378 [K]  (avg.       -9200.8641253517)
	Current Host-Host energy:                     0.0000000000 [K]  (avg.           0.0000000000)
	Current Host-Adsorbate energy:                0.0000000000 [K]  (avg.           0.0000000000)
	Current Host-Cation energy:                   0.0000000000 [K]  (avg.           0.0000000000)
	Current Adsorbate-Adsorbate energy:      -15837.6750130378 [K]  (avg.       -9200.8641253517)
	Current Cation-Cation energy:                 0.0000000000 [K]  (avg.           0.0000000000)
	Current Adsorbate-Cation energy:              0.0000000000 [K]  (avg.           0.0000000000)



Current cycle: 500 out of 5000
========================================================================================================

Net charge: 0 (F: 0, A: 0, C: 0)
Current Box:  30.21622   0.00000   0.00000 [A]   Average Box:  37.46602   0.00000   0.00000 [A]
               0.00000  30.21622   0.00000 [A]                  0.00000  37.46602   0.00000 [A]
               0.00000   0.00000  30.21622 [A]                  0.00000   0.00000  37.46602 [A]
Box-lengths:   30.21622  30.21622  30.21622 [A] Average:  37.46602  37.46602  37.46602 [A]
Box-angles:   90.00000  90.00000  90.00000 [degrees] Average:  90.00000  90.00000  90.00000 [degrees]
Volume: 27588.01260 [A^3] Average Volume: 55438.14909 [A^3]

Current Stress:  11.13998  -1.27219  -0.69556 [MPa]   Average Stress: 7658.33360   0.05578  83.03076 [kPa]
                 -1.27219  12.93275  -1.30318 [MPa]                     0.05578 7593.38099 -55.91486 [kPa]
                 -0.69556  -1.30318   9.01594 [MPa]                    83.03076 -55.91486 7534.51576 [kPa]
Average pressure:    7595.4101158551 [kPa]      74.9608696359 [atm]      75.9541011586 [bar]
	Ideal gas part:      8612.6191900910 [kPa]      84.9999426607 [atm]      86.1261919009 [bar]
	excess part:        -1017.2090742359 [kPa]     -10.0390730248 [atm]     -10.1720907424 [bar]
	tail correction:       0.0000000000 [kPa]       0.0000000000 [atm]       0.0000000000 [bar]

Amount of molecules per component:
----------------------------------------------------------------------------------------------------------------------------------------------------
Component 0 (methane), current number of integer/fractional/reaction molecules: 100/0/0 (average 100.00000/  0.00000), density:  96.56060 (average  55.76422) kg/m^3]
----------------------------------------------------------------------------------------------------------------------------------------------------
Degrees of freedom: 300 0 300 0
Number of Framework-atoms:      0
Number of Adsorbates:         100 (100 integer, 0 fractional, 0 reaction)
Number of Cations:              0 (0 integer, 0 fractional, 0 reaction)

Current total potential energy:            -17986.4982585641 [K]  (avg.      -10532.9876445304)
	Current Host-Host energy:                     0.0000000000 [K]  (avg.           0.0000000000)
	Current Host-Adsorbate energy:                0.0000000000 [K]  (avg.           0.0000000000)
	Current Host-Cation energy:                   0.0000000000 [K]  (avg.           0.0000000000)
	Current Adsorbate-Adsorbate energy:      -17986.4982585641 [K]  (avg.      -10532.9876445304)
	Current Cation-Cation energy:                 0.0000000000 [K]  (avg.           0.0000000000)
	Current Adsorbate-Cation energy:              0.0000000000 [K]  (avg.           0.0000000000)



Current cycle: 600 out of 5000
========================================================================================================

Net charge: 0 (F: 0, A: 0, C: 0)
Current Box:  29.70722   0.00000   0.00000 [A]   Average Box:  36.26295   0.00000   0.00000 [A]
               0.00000  29.70722   0.00000 [A]                  0.00000  36.26295   0.00000 [A]
               0.00000   0.00000  29.70722 [A]                  0.00000   0.00000  36.26295 [A]
Box-lengths:   29.70722  29.70722  29.70722 [A] Average:  36.26295  36.26295  36.26295 [A]
Box-angles:   90.00000  90.00000  90.00000 [degrees] Average:  90.00000  90.00000  90.00000 [degrees]
Volume: 26217.18223 [A^3] Average Volume: 50814.23103 [A^3]

Current Stress:   8.23600  -1.06573  -1.77527 [MPa]   Average Stress: 8531.73791  50.26254  58.26199 [kPa]
                 -1.06573  11.78164   0.89017 [MPa]                    50.26254 8345.57508 -25.58733 [kPa]
                 -1.77527   0.89017  13.52268 [MPa]                    58.26199 -25.58733 8378.86944 [kPa]
Average pressure:    8418.7274787422 [kPa]      83.0863802491 [atm]      84.1872747874 [bar]
	Ideal gas part:      9657.6038883622 [kPa]      95.3131397815 [atm]      96.5760388836 [bar]
	excess part:        -1238.8764096200 [kPa]     -12.2267595324 [atm]     -12.3887640962 [bar]
	tail correction:       0.0000000000 [kPa]       0.0000000000 [atm]       0.0000000000 [bar]

Amount of molecules per component:
----------------------------------------------------------------------------------------------------------------------------------------------------
Component 0 (methane), current number of integer/fractional/reaction molecules: 100/0/0 (average 100.00000/  0.00000), density: 101.60951 (average  62.53020) kg/m^3]
----------------------------------------------------------------------------------------------------------------------------------------------------
Degrees of freedom: 300 0 300 0
Number of Framework-atoms:      0
Number of Adsorbates:         100 (100 integer, 0 fractional, 0 reaction)
Number of Cations:              0 (0 integer, 0 fractional, 0 reaction)

Current total potential energy:            -19671.2066568799 [K]  (avg.      -11733.8018214931)
	Current Host-Host energy:                     0.0000000000 [K]  (avg.           0.0000000000)
	Current Host-Adsorbate energy:                0.0000000000 [K]  (avg.           0.0000000000)
	Current Host-Cation energy:                   0.0000000000 [K]  (avg.           0.0000000000)
	Current Adsorbate-Adsorbate energy:      -19671.2066568799 [K]  (avg.      -11733.8018214931)
	Current Cation-Cation energy:                 0.0000000000 [K]  (avg.           0.0000000000)
	Current Adsorbate-Cation energy:              0.0000000000 [K]  (avg.           0.0000000000)



Current cycle: 700 out of 5000
========================================================================================================

Net charge: 0 (F: 0, A: 0, C: 0)
Current Box:  28.47848   0.00000   0.00000 [A]   Average Box:  35.26025   0.00000   0.00000 [A]
               0.00000  28.47848   0.00000 [A]                  0.00000  35.26025   0.00000 [A]
               0.00000   0.00000  28.47848 [A]                  0.00000   0.00000  35.26025 [A]
Box-lengths:   28.47848  28.47848  28.47848 [A] Average:  35.26025  35.26025  35.26025 [A]
Box-angles:   90.00000  90.00000  90.00000 [degrees] Average:  90.00000  90.00000  90.00000 [degrees]
Volume: 23096.72176 [A^3] Average Volume: 47131.36435 [A^3]

Current Stress:  11.22985   6.45792  -0.13145 [MPa]   Average Stress: 9340.28554  47.01211 -40.29567 [kPa]
                  6.45792  10.23011  -3.18136 [MPa]                    47.01211 9101.82250 -47.14610 [kPa]
                 -0.13145  -3.18136  18.87981 [MPa]                   -40.29567 -47.14610 9259.23275 [kPa]
Average pressure:    9233.7802607400 [kPa]      91.1303257907 [atm]      92.3378026074 [bar]
	Ideal gas part:     10631.5818608962 [kPa]     104.9255550051 [atm]     106.3158186090 [bar]
	excess part:        -1397.8016001562 [kPa]     -13.7952292145 [atm]     -13.9780160016 [bar]
	tail correction:       0.0000000000 [kPa]       0.0000000000 [atm]       0.0000000000 [bar]

Amount of molecules per component:
----------------------------------------------------------------------------------------------------------------------------------------------------
Component 0 (methane), current number of integer/fractional/reaction molecules: 100/0/0 (average 100.00000/  0.00000), density: 115.33736 (average  68.83642) kg/m^3]
----------------------------------------------------------------------------------------------------------------------------------------------------
Degrees of freedom: 300 0 300 0
Number of Framework-atoms:      0
Number of Adsorbates:         100 (100 integer, 0 fractional, 0 reaction)
Number of Cations:              0 (0 integer, 0 fractional, 0 reaction)

Current total potential energy:            -21264.8635738666 [K]  (avg.      -12837.8374946105)
	Current Host-Host energy:                     0.0000000000 [K]  (avg.           0.0000000000)
	Current Host-Adsorbate energy:                0.0000000000 [K]  (avg.           0.0000000000)
	Current Host-Cation energy:                   0.0000000000 [K]  (avg.           0.0000000000)
	Current Adsorbate-Adsorbate energy:      -21264.8635738666 [K]  (avg.      -12837.8374946105)
	Current Cation-Cation energy:                 0.0000000000 [K]  (avg.           0.0000000000)
	Current Adsorbate-Cation energy:              0.0000000000 [K]  (avg.           0.0000000000)



Current cycle: 800 out of 5000
========================================================================================================

Net charge: 0 (F: 0, A: 0, C: 0)
Current Box:  27.15363   0.00000   0.00000 [A]   Average Box:  34.32547   0.00000   0.00000 [A]
               0.00000  27.15363   0.00000 [A]                  0.00000  34.32547   0.00000 [A]
               0.00000   0.00000  27.15363 [A]                  0.00000   0.00000  34.32547 [A]
Box-lengths:   27.15363  27.15363  27.15363 [A] Average:  34.32547  34.32547  34.32547 [A]
Box-angles:   90.00000  90.00000  90.00000 [degrees] Average:  90.00000  90.00000  90.00000 [degrees]
Volume: 20020.90815 [A^3] Average Volume: 43922.80922 [A^3]

Current Stress:  17.37663  -3.35089   1.59090 [MPa]   Average Stress: 10057.22310  92.35836 -33.19382 [kPa]
                 -3.35089  17.86371   6.46087 [MPa]                    92.35836 9685.21235 -52.50312 [kPa]
                  1.59090   6.46087  18.58688 [MPa]                   -33.19382 -52.50312 9949.85927 [kPa]
Average pressure:    9897.4315743538 [kPa]      97.6800550146 [atm]      98.9743157435 [bar]
	Ideal gas part:     11704.1282182392 [kPa]     115.5107645521 [atm]     117.0412821824 [bar]
	excess part:        -1806.6966438854 [kPa]     -17.8307095375 [atm]     -18.0669664389 [bar]
	tail correction:       0.0000000000 [kPa]       0.0000000000 [atm]       0.0000000000 [bar]

Amount of molecules per component:
----------------------------------------------------------------------------------------------------------------------------------------------------
Component 0 (methane), current number of integer/fractional/reaction molecules: 100/0/0 (average 100.00000/  0.00000), density: 133.05665 (average  75.78085) kg/m^3]
----------------------------------------------------------------------------------------------------------------------------------------------------
Degrees of freedom: 300 0 300 0
Number of Framework-atoms:      0
Number of Adsorbates:         100 (100 integer, 0 fractional, 0 reaction)
Number of Cations:              0 (0 integer, 0 fractional, 0 reaction)

Current total potential energy:            -26118.5215303138 [K]  (avg.      -14111.1114814237)
	Current Host-Host energy:                     0.0000000000 [K]  (avg.           0.0000000000)
	Current Host-Adsorbate energy:                0.0000000000 [K]  (avg.           0.0000000000)
	Current Host-Cation energy:                   0.0000000000 [K]  (avg.           0.0000000000)
	Current Adsorbate-Adsorbate energy:      -26118.5215303138 [K]  (avg.      -14111.1114814237)
	Current Cation-Cation energy:                 0.0000000000 [K]  (avg.           0.0000000000)
	Current Adsorbate-Cation energy:              0.0000000000 [K]  (avg.           0.0000000000)



Current cycle: 900 out of 5000
========================================================================================================

Net charge: 0 (F: 0, A: 0, C: 0)
Current Box:  26.49570   0.00000   0.00000 [A]   Average Box:  33.49129   0.00000   0.00000 [A]
               0.00000  26.49570   0.00000 [A]                  0.00000  33.49129   0.00000 [A]
               0.00000   0.00000  26.49570 [A]                  0.00000   0.00000  33.49129 [A]
Box-lengths:   26.49570  26.49570  26.49570 [A] Average:  33.49129  33.49129  33.49129 [A]
Box-angles:   90.00000  90.00000  90.00000 [degrees] Average:  90.00000  90.00000  90.00000 [degrees]
Volume: 18600.57431 [A^3] Average Volume: 41187.92769 [A^3]

Current Stress:  12.29178  -2.09103   0.50707 [MPa]   Average Stress: 10739.50850 125.66447  -3.65838 [kPa]
                 -2.09103  20.37674   3.60621 [MPa]                   125.66447 10562.83567  -7.73327 [kPa]
                  0.50707   3.60621  24.75363 [MPa]                    -3.65838  -7.73327 10928.17148 [kPa]
Average pressure:   10743.5052155879 [kPa]     106.0301526335 [atm]     107.4350521559 [bar]
	Ideal gas part:     12777.8442701258 [kPa]     126.1075180866 [atm]     127.7784427013 [bar]
	excess part:        -2034.3390545379 [kPa]     -20.0773654531 [atm]     -20.3433905454 [bar]
	tail correction:       0.0000000000 [kPa]       0.0000000000 [atm]       0.0000000000 [bar]

Amount of molecules per component:
----------------------------------------------------------------------------------------------------------------------------------------------------
Component 0 (methane), current number of integer/fractional/reaction molecules: 100/0/0 (average 100.00000/  0.00000), density: 143.21681 (average  82.73285) kg/m^3]
----------------------------------------------------------------------------------------------------------------------------------------------------
Degrees of freedom: 300 0 300 0
Number of Framework-atoms:      0
Number of Adsorbates:         100 (100 integer, 0 fractional, 0 reaction)
Number of Cations:              0 (0 integer, 0 fractional, 0 reaction)

Current total potential energy:            -25847.6932750883 [K]  (avg.      -15390.9469842680)
	Current Host-Host energy:                     0.0000000000 [K]  (avg.           0.0000000000)
	Current Host-Adsorbate energy:                0.0000000000 [K]  (avg.           0.0000000000)
	Current Host-Cation energy:                   0.0000000000 [K]  (avg.           0.0000000000)
	Current Adsorbate-Adsorbate energy:      -25847.6932750883 [K]  (avg.      -15390.9469842680)
	Current Cation-Cation energy:                 0.0000000000 [K]  (avg.           0.0000000000)
	Current Adsorbate-Cation energy:              0.0000000000 [K]  (avg.           0.0000000000)



Current cycle: 1000 out of 5000
========================================================================================================

Net charge: 0 (F: 0, A: 0, C: 0)
Current Box:  26.64358   0.00000   0.00000 [A]   Average Box:  32.77065   0.00000   0.00000 [A]
               0.00000  26.64358   0.00000 [A]                  0.00000  32.77065   0.00000 [A]
               0.00000   0.00000  26.64358 [A]                  0.00000   0.00000  32.77065 [A]
Box-lengths:   26.64358  26.64358  26.64358 [A] Average:  32.77065  32.77065  32.77065 [A]
Box-angles:   90.00000  90.00000  90.00000 [degrees] Average:  90.00000  90.00000  90.00000 [degrees]
Volume: 18913.75300 [A^3] Average Volume: 38886.63587 [A^3]

Current Stress:  11.94156   0.44896   4.87789 [MPa]   Average Stress: 11624.42027 204.86514 145.07724 [kPa]
                  0.44896  16.19355   1.38462 [MPa]                   204.86514 11362.86641  43.00042 [kPa]
                  4.87789   1.38462  18.18798 [MPa]                   145.07724  43.00042 11708.99676 [kPa]
Average pressure:   11565.4278151787 [kPa]     114.1418980032 [atm]     115.6542781518 [bar]
	Ideal gas part:     13768.2541222704 [kPa]     135.8821033533 [atm]     137.6825412227 [bar]
	excess part:        -2202.8263070917 [kPa]     -21.7402053500 [atm]     -22.0282630709 [bar]
	tail correction:       0.0000000000 [kPa]       0.0000000000 [atm]       0.0000000000 [bar]

Amount of molecules per component:
----------------------------------------------------------------------------------------------------------------------------------------------------
Component 0 (methane), current number of integer/fractional/reaction molecules: 100/0/0 (average 100.00000/  0.00000), density: 140.84539 (average  89.14547) kg/m^3]
----------------------------------------------------------------------------------------------------------------------------------------------------
Degrees of freedom: 300 0 300 0
Number of Framework-atoms:      0
Number of Adsorbates:         100 (100 integer, 0 fractional, 0 reaction)
Number of Cations:              0 (0 integer, 0 fractional, 0 reaction)

Current total potential energy:            -25870.8337067061 [K]  (avg.      -16572.9271411411)
	Current Host-Host energy:                     0.0000000000 [K]  (avg.           0.0000000000)
	Current Host-Adsorbate energy:                0.0000000000 [K]  (avg.           0.0000000000)
	Current Host-Cation energy:                   0.0000000000 [K]  (avg.           0.0000000000)
	Current Adsorbate-Adsorbate energy:      -25870.8337067061 [K]  (avg.      -16572.9271411411)
	Current Cation-Cation energy:                 0.0000000000 [K]  (avg.           0.0000000000)
	Current Adsorbate-Cation energy:              0.0000000000 [K]  (avg.           0.0000000000)



Current cycle: 1100 out of 5000
========================================================================================================

Net charge: 0 (F: 0, A: 0, C: 0)
Current Box:  26.48030   0.00000   0.00000 [A]   Average Box:  32.20600   0.00000   0.00000 [A]
               0.00000  26.48030   0.00000 [A]                  0.00000  32.20600   0.00000 [A]
               0.00000   0.00000  26.48030 [A]                  0.00000   0.00000  32.20600 [A]
Box-lengths:   26.48030  26.48030  26.48030 [A] Average:  32.20600  32.20600  32.20600 [A]
Box-angles:   90.00000  90.00000  90.00000 [degrees] Average:  90.00000  90.00000  90.00000 [degrees]
Volume: 18568.15714 [A^3] Average Volume: 37055.68638 [A^3]

Current Stress:  30.80527  -3.99541  -1.36214 [MPa]   Average Stress: 12106.49231 103.69654 237.45379 [kPa]
                 -3.99541   8.82443   4.05466 [MPa]                   103.69654 11911.00397  39.21298 [kPa]
                 -1.36214   4.05466  26.08001 [MPa]                   237.45379  39.21298 12208.80610 [kPa]
Average pressure:   12075.4341262695 [kPa]     119.1752689491 [atm]     120.7543412627 [bar]
	Ideal gas part:     14514.5698160693 [kPa]     143.2476665785 [atm]     145.1456981607 [bar]
	excess part:        -2439.1356897998 [kPa]     -24.0723976294 [atm]     -24.3913568980 [bar]
	tail correction:       0.0000000000 [kPa]       0.0000000000 [atm]       0.0000000000 [bar]

Amount of molecules per component:
[...]
	Current Host-Cation energy:                   0.0000000000 [K]  (avg.           0.0000000000)
	Current Adsorbate-Adsorbate energy:      -25604.7695066003 [K]  (avg.      -17463.2173299003)
	Current Cation-Cation energy:                 0.0000000000 [K]  (avg.           0.0000000000)
	Current Adsorbate-Cation energy:              0.0000000000 [K]  (avg.           0.0000000000)



Current cycle: 1200 out of 5000
========================================================================================================

Net charge: 0 (F: 0, A: 0, C: 0)
Current Box:  26.68854   0.00000   0.00000 [A]   Average Box:  31.73779   0.00000   0.00000 [A]
               0.00000  26.68854   0.00000 [A]                  0.00000  31.73779   0.00000 [A]
               0.00000   0.00000  26.68854 [A]                  0.00000   0.00000  31.73779 [A]
Box-lengths:   26.68854  26.68854  26.68854 [A] Average:  31.73779  31.73779  31.73779 [A]
Box-angles:   90.00000  90.00000  90.00000 [degrees] Average:  90.00000  90.00000  90.00000 [degrees]
Volume: 19009.66180 [A^3] Average Volume: 35534.47739 [A^3]

Current Stress:  11.39469  -3.38969   0.07694 [MPa]   Average Stress: 12842.51054  28.37559 231.58622 [kPa]
                 -3.38969  35.26815  -4.56778 [MPa]                    28.37559 12536.69912 -86.81804 [kPa]
                  0.07694  -4.56778  15.71526 [MPa]                   231.58622 -86.81804 12759.62858 [kPa]
Average pressure:   12712.9460781827 [kPa]     125.4670227306 [atm]     127.1294607818 [bar]
	Ideal gas part:     15130.0019588482 [kPa]     149.3215095865 [atm]     151.3000195885 [bar]
	excess part:        -2417.0558806655 [kPa]     -23.8544868558 [atm]     -24.1705588067 [bar]
	tail correction:       0.0000000000 [kPa]       0.0000000000 [atm]       0.0000000000 [bar]

Amount of molecules per component:
----------------------------------------------------------------------------------------------------------------------------------------------------
Component 0 (methane), current number of integer/fractional/reaction molecules: 100/0/0 (average 100.00000/  0.00000), density: 140.13479 (average  97.96239) kg/m^3]
----------------------------------------------------------------------------------------------------------------------------------------------------
Degrees of freedom: 300 0 300 0
Number of Framework-atoms:      0
Number of Adsorbates:         100 (100 integer, 0 fractional, 0 reaction)
Number of Cations:              0 (0 integer, 0 fractional, 0 reaction)

Current total potential energy:            -24507.6293278940 [K]  (avg.      -18131.4982086330)
	Current Host-Host energy:                     0.0000000000 [K]  (avg.           0.0000000000)
	Current Host-Adsorbate energy:                0.0000000000 [K]  (avg.           0.0000000000)
	Current Host-Cation energy:                   0.0000000000 [K]  (avg.           0.0000000000)
	Current Adsorbate-Adsorbate energy:      -24507.6293278940 [K]  (avg.      -18131.4982086330)
	Current Cation-Cation energy:                 0.0000000000 [K]  (avg.           0.0000000000)
	Current Adsorbate-Cation energy:              0.0000000000 [K]  (avg.           0.0000000000)



Current cycle: 1300 out of 5000
========================================================================================================

Net charge: 0 (F: 0, A: 0, C: 0)
Current Box:  26.23069   0.00000   0.00000 [A]   Average Box:  31.34322   0.00000   0.00000 [A]
               0.00000  26.23069   0.00000 [A]                  0.00000  31.34322   0.00000 [A]
               0.00000   0.00000  26.23069 [A]                  0.00000   0.00000  31.34322 [A]
Box-lengths:   26.23069  26.23069  26.23069 [A] Average:  31.34322  31.34322  31.34322 [A]
Box-angles:   90.00000  90.00000  90.00000 [degrees] Average:  90.00000  90.00000  90.00000 [degrees]
Volume: 18048.00470 [A^3] Average Volume: 34250.73645 [A^3]

Current Stress:  13.15966  -4.14694   1.29554 [MPa]   Average Stress: 13151.93870   9.94024 193.81378 [kPa]
                 -4.14694  23.96233  -8.24118 [MPa]                     9.94024 12898.87218 -18.36095 [kPa]
                  1.29554  -8.24118  16.65332 [MPa]                   193.81378 -18.36095 13123.61791 [kPa]
Average pressure:   13058.1429274254 [kPa]     128.8738507518 [atm]     130.5814292743 [bar]
	Ideal gas part:     15646.9085127991 [kPa]     154.4229806346 [atm]     156.4690851280 [bar]
	excess part:        -2588.7655853737 [kPa]     -25.5491298828 [atm]     -25.8876558537 [bar]
	tail correction:       0.0000000000 [kPa]       0.0000000000 [atm]       0.0000000000 [bar]

Amount of molecules per component:
----------------------------------------------------------------------------------------------------------------------------------------------------
Component 0 (methane), current number of integer/fractional/reaction molecules: 100/0/0 (average 100.00000/  0.00000), density: 147.60163 (average 101.30921) kg/m^3]
----------------------------------------------------------------------------------------------------------------------------------------------------
Degrees of freedom: 300 0 300 0
Number of Framework-atoms:      0
Number of Adsorbates:         100 (100 integer, 0 fractional, 0 reaction)
Number of Cations:              0 (0 integer, 0 fractional, 0 reaction)

Current total potential energy:            -26201.1414227913 [K]  (avg.      -18714.6762284609)
	Current Host-Host energy:                     0.0000000000 [K]  (avg.           0.0000000000)
	Current Host-Adsorbate energy:                0.0000000000 [K]  (avg.           0.0000000000)
	Current Host-Cation energy:                   0.0000000000 [K]  (avg.           0.0000000000)
	Current Adsorbate-Adsorbate energy:      -26201.1414227913 [K]  (avg.      -18714.6762284609)
	Current Cation-Cation energy:                 0.0000000000 [K]  (avg.           0.0000000000)
	Current Adsorbate-Cation energy:              0.0000000000 [K]  (avg.           0.0000000000)



Current cycle: 1400 out of 5000
========================================================================================================

Net charge: 0 (F: 0, A: 0, C: 0)
Current Box:  26.63193   0.00000   0.00000 [A]   Average Box:  30.99187   0.00000   0.00000 [A]
               0.00000  26.63193   0.00000 [A]                  0.00000  30.99187   0.00000 [A]
               0.00000   0.00000  26.63193 [A]                  0.00000   0.00000  30.99187 [A]
Box-lengths:   26.63193  26.63193  26.63193 [A] Average:  30.99187  30.99187  30.99187 [A]
Box-angles:   90.00000  90.00000  90.00000 [degrees] Average:  90.00000  90.00000  90.00000 [degrees]
Volume: 18888.95665 [A^3] Average Volume: 33122.55933 [A^3]

Current Stress:   8.05298   3.35545   3.89018 [MPa]   Average Stress: 13522.82958 135.22776 205.79507 [kPa]
                  3.35545  11.52772  -2.93144 [MPa]                   135.22776 13248.56204  91.92318 [kPa]
                  3.89018  -2.93144   6.97938 [MPa]                   205.79507  91.92318 13575.69436 [kPa]
Average pressure:   13449.0286617824 [kPa]     132.7315930104 [atm]     134.4902866178 [bar]
	Ideal gas part:     16122.7017398219 [kPa]     159.1186946935 [atm]     161.2270173982 [bar]
	excess part:        -2673.6730780395 [kPa]     -26.3871016831 [atm]     -26.7367307804 [bar]
	tail correction:       0.0000000000 [kPa]       0.0000000000 [atm]       0.0000000000 [bar]

Amount of molecules per component:
----------------------------------------------------------------------------------------------------------------------------------------------------
Component 0 (methane), current number of integer/fractional/reaction molecules: 100/0/0 (average 100.00000/  0.00000), density: 141.03029 (average 104.38984) kg/m^3]
----------------------------------------------------------------------------------------------------------------------------------------------------
Degrees of freedom: 300 0 300 0
Number of Framework-atoms:      0
Number of Adsorbates:         100 (100 integer, 0 fractional, 0 reaction)
Number of Cations:              0 (0 integer, 0 fractional, 0 reaction)

Current total potential energy:            -29970.6319787264 [K]  (avg.      -19252.0702332740)
	Current Host-Host energy:                     0.0000000000 [K]  (avg.           0.0000000000)
	Current Host-Adsorbate energy:                0.0000000000 [K]  (avg.           0.0000000000)
	Current Host-Cation energy:                   0.0000000000 [K]  (avg.           0.0000000000)
	Current Adsorbate-Adsorbate energy:      -29970.6319787264 [K]  (avg.      -19252.0702332740)
	Current Cation-Cation energy:                 0.0000000000 [K]  (avg.           0.0000000000)
	Current Adsorbate-Cation energy:              0.0000000000 [K]  (avg.           0.0000000000)



Current cycle: 1500 out of 5000
========================================================================================================

Net charge: 0 (F: 0, A: 0, C: 0)
Current Box:  26.65881   0.00000   0.00000 [A]   Average Box:  30.70937   0.00000   0.00000 [A]
               0.00000  26.65881   0.00000 [A]                  0.00000  30.70937   0.00000 [A]
               0.00000   0.00000  26.65881 [A]                  0.00000   0.00000  30.70937 [A]
Box-lengths:   26.65881  26.65881  26.65881 [A] Average:  30.70937  30.70937  30.70937 [A]
Box-angles:   90.00000  90.00000  90.00000 [degrees] Average:  90.00000  90.00000  90.00000 [degrees]
Volume: 18946.20984 [A^3] Average Volume: 32191.43233 [A^3]

Current Stress:  11.59808  -2.33838   1.07599 [MPa]   Average Stress: 13756.68505 101.46736 220.18433 [kPa]
                 -2.33838  26.76177   4.90608 [MPa]                   101.46736 13543.26565 151.69487 [kPa]
                  1.07599   4.90608  19.03125 [MPa]                   220.18433 151.69487 13866.64001 [kPa]
Average pressure:   13722.1969017357 [kPa]     135.4275539278 [atm]     137.2219690174 [bar]
	Ideal gas part:     16480.6220884431 [kPa]     162.6510938904 [atm]     164.8062208844 [bar]
	excess part:        -2758.4251867074 [kPa]     -27.2235399626 [atm]     -27.5842518671 [bar]
	tail correction:       0.0000000000 [kPa]       0.0000000000 [atm]       0.0000000000 [bar]

Amount of molecules per component:
----------------------------------------------------------------------------------------------------------------------------------------------------
Component 0 (methane), current number of integer/fractional/reaction molecules: 100/0/0 (average 100.00000/  0.00000), density: 140.60411 (average 106.70727) kg/m^3]
----------------------------------------------------------------------------------------------------------------------------------------------------
Degrees of freedom: 300 0 300 0
Number of Framework-atoms:      0
Number of Adsorbates:         100 (100 integer, 0 fractional, 0 reaction)
Number of Cations:              0 (0 integer, 0 fractional, 0 reaction)

Current total potential energy:            -26432.0115209279 [K]  (avg.      -19655.4851684157)
	Current Host-Host energy:                     0.0000000000 [K]  (avg.           0.0000000000)
	Current Host-Adsorbate energy:                0.0000000000 [K]  (avg.           0.0000000000)
	Current Host-Cation energy:                   0.0000000000 [K]  (avg.           0.0000000000)
	Current Adsorbate-Adsorbate energy:      -26432.0115209279 [K]  (avg.      -19655.4851684157)
	Current Cation-Cation energy:                 0.0000000000 [K]  (avg.           0.0000000000)
	Current Adsorbate-Cation energy:              0.0000000000 [K]  (avg.           0.0000000000)



Current cycle: 1600 out of 5000
========================================================================================================

Net charge: 0 (F: 0, A: 0, C: 0)
Current Box:  25.73555   0.00000   0.00000 [A]   Average Box:  30.44409   0.00000   0.00000 [A]
               0.00000  25.73555   0.00000 [A]                  0.00000  30.44409   0.00000 [A]
               0.00000   0.00000  25.73555 [A]                  0.00000   0.00000  30.44409 [A]
Box-lengths:   25.73555  25.73555  25.73555 [A] Average:  30.44409  30.44409  30.44409 [A]
Box-angles:   90.00000  90.00000  90.00000 [degrees] Average:  90.00000  90.00000  90.00000 [degrees]
Volume: 17045.14050 [A^3] Average Volume: 31338.91499 [A^3]

Current Stress:  15.05102  -6.24609  -8.39441 [MPa]   Average Stress: 14052.45972 103.35514 143.62384 [kPa]
                 -6.24609  20.10363  -7.78684 [MPa]                   103.35514 13797.05811 122.53677 [kPa]
                 -8.39441  -7.78684  27.11210 [MPa]                   143.62384 122.53677 14164.02226 [kPa]
Average pressure:   14004.5133612890 [kPa]     138.2138007529 [atm]     140.0451336129 [bar]
	Ideal gas part:     16839.9437778373 [kPa]     166.1973232454 [atm]     168.3994377784 [bar]
	excess part:        -2835.4304165483 [kPa]     -27.9835224925 [atm]     -28.3543041655 [bar]
	tail correction:       0.0000000000 [kPa]       0.0000000000 [atm]       0.0000000000 [bar]

Amount of molecules per component:
----------------------------------------------------------------------------------------------------------------------------------------------------
Component 0 (methane), current number of integer/fractional/reaction molecules: 100/0/0 (average 100.00000/  0.00000), density: 156.28589 (average 109.03377) kg/m^3]
----------------------------------------------------------------------------------------------------------------------------------------------------
Degrees of freedom: 300 0 300 0
Number of Framework-atoms:      0
Number of Adsorbates:         100 (100 integer, 0 fractional, 0 reaction)
Number of Cations:              0 (0 integer, 0 fractional, 0 reaction)

Current total potential energy:            -27488.9977909630 [K]  (avg.      -20083.0483017344)
	Current Host-Host energy:                     0.0000000000 [K]  (avg.           0.0000000000)
	Current Host-Adsorbate energy:                0.0000000000 [K]  (avg.           0.0000000000)
	Current Host-Cation energy:                   0.0000000000 [K]  (avg.           0.0000000000)
	Current Adsorbate-Adsorbate energy:      -27488.9977909630 [K]  (avg.      -20083.0483017344)
	Current Cation-Cation energy:                 0.0000000000 [K]  (avg.           0.0000000000)
	Current Adsorbate-Cation energy:              0.0000000000 [K]  (avg.           0.0000000000)



Current cycle: 1700 out of 5000
========================================================================================================

Net charge: 0 (F: 0, A: 0, C: 0)
Current Box:  25.42083   0.00000   0.00000 [A]   Average Box:  30.16369   0.00000   0.00000 [A]
               0.00000  25.42083   0.00000 [A]                  0.00000  30.16369   0.00000 [A]
               0.00000   0.00000  25.42083 [A]                  0.00000   0.00000  30.16369 [A]
Box-lengths:   25.42083  25.42083  25.42083 [A] Average:  30.16369  30.16369  30.16369 [A]
Box-angles:   90.00000  90.00000  90.00000 [degrees] Average:  90.00000  90.00000  90.00000 [degrees]
Volume: 16427.42106 [A^3] Average Volume: 30491.76069 [A^3]

Current Stress:  17.44556   4.19962  -1.35986 [MPa]   Average Stress: 14521.68849  98.83644 164.12799 [kPa]
                  4.19962  13.41351  -0.02275 [MPa]                    98.83644 14121.25756  50.65319 [kPa]
                 -1.35986  -0.02275  10.29523 [MPa]                   164.12799  50.65319 14551.44390 [kPa]
Average pressure:   14398.1299808796 [kPa]     142.0984947533 [atm]     143.9812998088 [bar]
	Ideal gas part:     17279.9259809176 [kPa]     170.5396099770 [atm]     172.7992598092 [bar]
	excess part:        -2881.7960000380 [kPa]     -28.4411152237 [atm]     -28.8179600004 [bar]
	tail correction:       0.0000000000 [kPa]       0.0000000000 [atm]       0.0000000000 [bar]

Amount of molecules per component:
----------------------------------------------------------------------------------------------------------------------------------------------------
Component 0 (methane), current number of integer/fractional/reaction molecules: 100/0/0 (average 100.00000/  0.00000), density: 162.16270 (average 111.88253) kg/m^3]
----------------------------------------------------------------------------------------------------------------------------------------------------
Degrees of freedom: 300 0 300 0
Number of Framework-atoms:      0
Number of Adsorbates:         100 (100 integer, 0 fractional, 0 reaction)
Number of Cations:              0 (0 integer, 0 fractional, 0 reaction)

Current total potential energy:            -32348.9789050423 [K]  (avg.      -20551.3322833343)
	Current Host-Host energy:                     0.0000000000 [K]  (avg.           0.0000000000)
	Current Host-Adsorbate energy:                0.0000000000 [K]  (avg.           0.0000000000)
	Current Host-Cation energy:                   0.0000000000 [K]  (avg.           0.0000000000)
	Current Adsorbate-Adsorbate energy:      -32348.9789050423 [K]  (avg.      -20551.3322833343)
	Current Cation-Cation energy:                 0.0000000000 [K]  (avg.           0.0000000000)
	Current Adsorbate-Cation energy:              0.0000000000 [K]  (avg.           0.0000000000)



Current cycle: 1800 out of 5000
========================================================================================================

Net charge: 0 (F: 0, A: 0, C: 0)
Current Box:  25.05468   0.00000   0.00000 [A]   Average Box:  29.90363   0.00000   0.00000 [A]
               0.00000  25.05468   0.00000 [A]                  0.00000  29.90363   0.00000 [A]
               0.00000   0.00000  25.05468 [A]                  0.00000   0.00000  29.90363 [A]
Box-lengths:   25.05468  25.05468  25.05468 [A] Average:  29.90363  29.90363  29.90363 [A]
Box-angles:   90.00000  90.00000  90.00000 [degrees] Average:  90.00000  90.00000  90.00000 [degrees]
Volume: 15727.74738 [A^3] Average Volume: 29717.50273 [A^3]

Current Stress:  37.09322  -6.26549 -14.45305 [MPa]   Average Stress: 14867.45520  23.13345 172.94571 [kPa]
                 -6.26549  31.13688   2.34557 [MPa]                    23.13345 14401.96222 -26.60905 [kPa]
                -14.45305   2.34557  31.39066 [MPa]                   172.94571 -26.60905 14820.93794 [kPa]
Average pressure:   14696.7851201999 [kPa]     145.0459918105 [atm]     146.9678512020 [bar]
	Ideal gas part:     17702.3013036504 [kPa]     174.7081303099 [atm]     177.0230130365 [bar]
	excess part:        -3005.5161834505 [kPa]     -29.6621384994 [atm]     -30.0551618345 [bar]
	tail correction:       0.0000000000 [kPa]       0.0000000000 [atm]       0.0000000000 [bar]

Amount of molecules per component:
----------------------------------------------------------------------------------------------------------------------------------------------------
Component 0 (methane), current number of integer/fractional/reaction molecules: 100/0/0 (average 100.00000/  0.00000), density: 169.37677 (average 114.61729) kg/m^3]
----------------------------------------------------------------------------------------------------------------------------------------------------
Degrees of freedom: 300 0 300 0
Number of Framework-atoms:      0
Number of Adsorbates:         100 (100 integer, 0 fractional, 0 reaction)
Number of Cations:              0 (0 integer, 0 fractional, 0 reaction)

Current total potential energy:            -28540.8195057755 [K]  (avg.      -21060.4827812945)
	Current Host-Host energy:                     0.0000000000 [K]  (avg.           0.0000000000)
	Current Host-Adsorbate energy:                0.0000000000 [K]  (avg.           0.0000000000)
	Current Host-Cation energy:                   0.0000000000 [K]  (avg.           0.0000000000)
	Current Adsorbate-Adsorbate energy:      -28540.8195057755 [K]  (avg.      -21060.4827812945)
	Current Cation-Cation energy:                 0.0000000000 [K]  (avg.           0.0000000000)
	Current Adsorbate-Cation energy:              0.0000000000 [K]  (avg.           0.0000000000)



