# vtk DataFile Version 1.0
Cube
ASCII

DATASET POLYDATA
POINTS 400 float
0.794370 -3.098242 5.876490
-0.624942 -2.677413 5.384313
0.794370 26.901758 5.876490
-0.624942 27.322587 5.384313
30.794370 -3.098242 5.876490
29.375058 -2.677413 5.384313
30.794370 26.901758 5.876490
29.375058 27.322587 5.384313
1.483883 7.264784 1.876599
1.469280 6.766443 3.426135
1.483883 7.264784 31.876599
1.469280 6.766443 33.426135
31.483883 7.264784 1.876599
31.469280 6.766443 3.426135
31.483883 7.264784 31.876599
31.469280 6.766443 33.426135
7.838780 0.885678 18.983935
7.054183 0.959575 17.558124
7.838780 30.885678 18.983935
7.054183 30.959575 17.558124
20.365504 19.555808 19.296888
20.289705 20.786923 19.999121
14.954192 8.198154 18.130063
16.072793 8.870375 17.288878
0.647175 2.277790 2.119550
0.205611 1.722292 3.535918
0.647175 2.277790 32.119550
0.205611 1.722292 33.535918
0.647175 32.277790 2.119550
0.205611 31.722292 3.535918
0.647175 32.277790 32.119550
0.205611 31.722292 33.535918
30.647175 2.277790 2.119550
30.205611 1.722292 3.535918
30.647175 2.277790 32.119550
30.205611 1.722292 33.535918
30.647175 32.277790 2.119550
30.205611 31.722292 3.535918
30.647175 32.277790 32.119550
30.205611 31.722292 33.535918
10.542390 2.665158 -3.165854
11.210128 3.580766 -2.074687
10.542390 2.665158 26.834146
11.210128 3.580766 27.925313
15.561334 3.472589 25.753241
14.419600 4.307848 26.052880
22.959215 10.616535 5.082253
21.766794 10.691068 4.163194
25.246079 -1.203384 1.762850
26.525874 -1.937816 1.473785
25.246079 -1.203384 31.762850
26.525874 -1.937816 31.473785
25.246079 28.796616 1.762850
26.525874 28.062184 1.473785
25.246079 28.796616 31.762850
26.525874 28.062184 31.473785
6.015013 13.600435 8.565307
6.883073 12.707085 7.695258
0.628053 15.734418 25.778788
0.805333 16.760032 24.539358
30.628053 15.734418 25.778788
30.805333 16.760032 24.539358
22.273173 10.823272 21.071844
22.818104 10.658510 19.555026
4.188981 16.000431 11.255389
5.342829 16.981055 11.278898
4.760306 24.044551 -3.578029
5.351997 24.031205 -2.141280
4.760306 24.044551 26.421971
5.351997 24.031205 27.858720
-2.265992 0.688851 18.688741
-3.508495 1.358523 18.028863
-2.265992 30.688851 18.688741
-3.508495 31.358523 18.028863
27.734008 0.688851 18.688741
26.491505 1.358523 18.028863
27.734008 30.688851 18.688741
26.491505 31.358523 18.028863
9.977012 26.467649 6.590563
8.529603 26.355355 6.112074
-2.112886 -2.697792 23.944530
-2.032663 -2.322766 25.391337
-2.112886 27.302208 23.944530
-2.032663 27.677234 25.391337
27.887114 -2.697792 23.944530
27.967337 -2.322766 25.391337
27.887114 27.302208 23.944530
27.967337 27.677234 25.391337
8.001680 11.287541 -0.129290
9.048565 11.490018 0.998496
8.001680 11.287541 29.870710
9.048565 11.490018 30.998496
23.197599 9.414319 14.019882
23.944800 8.692502 12.936472
20.240496 3.391885 3.737667
18.870696 3.276533 4.390865
12.504554 23.893991 18.881182
11.448386 23.011369 18.244385
21.299190 3.951523 17.942700
21.510641 3.582580 16.427813
8.155350 19.467870 21.146635
7.338993 19.605918 19.834331
16.506916 12.043815 -1.410618
17.067024 13.425068 -1.255356
16.506916 12.043815 28.589382
17.067024 13.425068 28.744644
13.022841 9.825156 26.650467
13.590052 8.873828 25.521337
17.054544 9.107571 21.213457
17.383050 9.942926 22.357183
3.596899 25.305105 17.932724
5.064464 24.890099 17.897426
24.222975 9.582635 -0.709104
23.468398 8.214474 -0.362717
24.222975 9.582635 29.290896
23.468398 8.214474 29.637283
26.025645 7.838135 19.384126
24.709852 7.305566 18.852792
22.158754 -1.564363 23.807444
23.487576 -0.953253 23.467119
22.158754 28.435637 23.807444
23.487576 29.046747 23.467119
20.729598 8.603024 17.120687
20.510988 7.813115 15.866602
6.557962 21.674303 23.978097
7.626168 21.688038 24.954107
14.934012 10.805681 13.764244
15.371769 9.346167 13.571833
20.717643 3.124577 10.957100
20.293399 1.949793 11.727887
20.717643 33.124577 10.957100
20.293399 31.949793 11.727887
-2.404924 20.822009 -1.539289
-1.776471 21.459485 -2.787695
-2.404924 20.822009 28.460711
-1.776471 21.459485 27.212305
27.595076 20.822009 -1.539289
28.223529 21.459485 -2.787695
27.595076 20.822009 28.460711
28.223529 21.459485 27.212305
14.316424 21.695641 5.478952
15.576582 22.119767 4.721234
12.688361 6.727934 14.828424
13.648487 5.527294 15.173461
12.499145 3.255728 17.806683
13.246248 3.233508 19.219215
-0.553288 -2.557506 17.930443
-2.035823 -2.915287 18.092351
-0.553288 27.442494 17.930443
-2.035823 27.084713 18.092351
29.446712 -2.557506 17.930443
27.964177 -2.915287 18.092351
29.446712 27.442494 17.930443
27.964177 27.084713 18.092351
12.891881 18.546829 -2.732909
14.158258 17.919757 -2.455082
12.891881 18.546829 27.267091
14.158258 17.919757 27.544918
11.110255 15.590850 2.504684
9.818421 15.429162 1.697056
11.110255 15.590850 32.504684
9.818421 15.429162 31.697056
3.415447 13.477973 -1.574248
3.301057 12.666012 -2.981561
3.415447 13.477973 28.425752
3.301057 12.666012 27.018439
2.621841 -2.811005 0.928298
2.836249 -1.756390 -0.079996
2.621841 -2.811005 30.928298
2.836249 -1.756390 29.920004
2.621841 27.188995 0.928298
2.836249 28.243610 -0.079996
2.621841 27.188995 30.928298
2.836249 28.243610 29.920004
32.621841 -2.811005 0.928298
32.836249 -1.756390 -0.079996
32.621841 -2.811005 30.928298
32.836249 -1.756390 29.920004
32.621841 27.188995 0.928298
32.836249 28.243610 -0.079996
32.621841 27.188995 30.928298
32.836249 28.243610 29.920004
17.653510 14.513801 2.748257
18.971252 14.004533 2.256490
17.653510 14.513801 32.748257
18.971252 14.004533 32.256490
22.865904 4.612015 -2.664663
24.218439 3.780080 -2.834285
22.865904 4.612015 27.335337
24.218439 3.780080 27.165715
-2.790443 24.776311 8.786111
-2.513133 23.870525 7.587951
27.209557 24.776311 8.786111
27.486867 23.870525 7.587951
25.146164 19.154656 1.222003
24.030691 18.531444 0.369896
25.146164 19.154656 31.222003
24.030691 18.531444 30.369896
12.019203 -2.496401 15.370571
11.560764 -2.349921 16.811855
12.019203 27.503599 15.370571
11.560764 27.650079 16.811855
4.715121 24.926459 3.085689
4.265722 23.545286 2.300365
4.715121 24.926459 33.085689
4.265722 23.545286 32.300365
19.793061 23.822623 26.287856
20.762319 24.749937 27.154906
9.291312 24.496504 1.458456
9.126115 25.964038 1.912469
9.291312 24.496504 31.458456
9.126115 25.964038 31.912469
25.969987 12.828034 22.544126
25.933481 14.391914 22.974752
5.605470 2.198372 25.003446
4.935995 0.920508 25.615044
5.605470 32.198372 25.003446
4.935995 30.920508 25.615044
23.055286 22.361344 11.827472
23.286482 23.758821 11.114278
8.412545 18.307008 3.254991
8.483180 19.394530 2.098891
8.412545 18.307008 33.254991
8.483180 19.394530 32.098891
1.374138 -0.782818 23.223628
1.552702 -2.188276 22.611047
1.374138 29.217182 23.223628
1.552702 27.811724 22.611047
31.374138 -0.782818 23.223628
31.552702 -2.188276 22.611047
31.374138 29.217182 23.223628
31.552702 27.811724 22.611047
20.048923 20.965984 14.796604
20.237404 22.517446 14.739090
17.437293 4.546413 16.505735
16.834270 3.807011 17.740077
1.765859 27.191445 10.456050
1.996366 25.723779 10.363977
31.765859 27.191445 10.456050
31.996366 25.723779 10.363977
12.888022 9.050915 2.221355
12.529486 9.995181 3.440430
12.888022 9.050915 32.221355
12.529486 9.995181 33.440430
-1.999961 5.498181 21.899169
-3.206117 4.670718 22.421172
28.000039 5.498181 21.899169
26.793883 4.670718 22.421172
-0.640932 12.045008 26.329447
-2.045570 11.865735 25.794025
29.359068 12.045008 26.329447
27.954430 11.865735 25.794025
4.954055 15.147697 23.949075
5.360634 15.541329 25.421554
5.695616 7.494102 16.894686
6.571888 8.428791 15.884153
13.008259 3.479789 6.889403
13.231462 1.927446 6.673962
13.008259 33.479789 6.889403
13.231462 31.927446 6.673962
2.913490 -0.266310 18.399908
4.146626 -0.988224 17.957251
2.913490 29.733690 18.399908
4.146626 29.011776 17.957251
13.185140 18.907806 19.879888
12.080882 19.737546 20.326512
9.466617 0.633685 9.711566
10.260470 1.907757 9.253894
9.466617 30.633685 9.711566
10.260470 31.907757 9.253894
-0.993356 20.027560 7.272482
-1.514868 20.164265 5.846911
29.006644 20.027560 7.272482
28.485132 20.164265 5.846911
-0.722009 8.334812 16.189491
-1.163135 9.787003 16.036260
29.277991 8.334812 16.189491
28.836865 9.787003 16.036260
14.677486 15.470474 8.655504
14.089972 16.730404 7.785183
15.655335 14.530070 21.619703
15.289665 14.351732 23.123616
23.801616 23.211732 17.678550
23.848434 22.005967 18.676772
1.275554 2.581992 -1.618935
-0.000243 3.463229 -1.218421
1.275554 2.581992 28.381065
-0.000243 3.463229 28.781579
1.275554 32.581992 -1.618935
-0.000243 33.463229 -1.218421
1.275554 32.581992 28.381065
-0.000243 33.463229 28.781579
31.275554 2.581992 -1.618935
29.999757 3.463229 -1.218421
31.275554 2.581992 28.381065
29.999757 3.463229 28.781579
31.275554 32.581992 -1.618935
29.999757 33.463229 -1.218421
31.275554 32.581992 28.381065
29.999757 33.463229 28.781579
7.615889 5.237276 11.829890
9.032748 5.340957 11.557760
13.887588 3.243308 1.592785
13.589679 4.812985 1.647651
13.887588 3.243308 31.592785
13.589679 4.812985 31.647651
2.660492 3.970272 13.319689
2.390770 2.506650 13.830568
32.660492 3.970272 13.319689
32.390770 2.506650 13.830568
18.413788 11.622861 5.631170
17.641884 10.729057 6.566967
5.158900 11.302554 22.849688
4.481603 10.190214 21.908784
7.577301 1.653323 12.754860
8.885783 0.848237 13.353874
7.577301 31.653323 12.754860
8.885783 30.848237 13.353874
26.396775 17.011442 -2.421756
26.969757 15.636442 -2.199025
26.396775 17.011442 27.578244
26.969757 15.636442 27.800975
11.395286 23.847427 -2.042685
10.636961 24.677900 -2.993181
11.395286 23.847427 27.957315
10.636961 24.677900 27.006819
18.744773 26.186742 13.292865
18.520253 27.546964 12.797394
0.588460 18.802415 12.906279
0.103449 20.193393 13.514310
30.588460 18.802415 12.906279
30.103449 20.193393 13.514310
12.912133 20.783691 14.831690
11.702830 21.759028 14.370682
6.541549 4.010093 0.690476
7.256775 5.285419 0.240360
6.541549 4.010093 30.690476
7.256775 5.285419 30.240360
2.455515 20.851927 21.025080
3.613119 21.910378 21.087907
25.952878 6.522425 2.027896
25.411840 5.311531 1.120565
25.952878 6.522425 32.027896
25.411840 5.311531 31.120565
24.758159 24.636149 25.013662
24.413266 23.421352 24.142886
4.153579 -0.861366 6.333117
3.135871 0.137427 6.547563
4.153579 29.138634 6.333117
3.135871 30.137427 6.547563
10.819909 22.031144 23.193448
10.559662 23.545567 22.852105
9.347518 16.546304 11.557127
10.446450 17.673909 11.615373
-1.481611 20.268797 20.114589
-2.844444 19.527809 19.480446
28.518389 20.268797 20.114589
27.155556 19.527809 19.480446
6.116798 15.166953 0.432727
4.993605 15.579389 1.472635
6.116798 15.166953 30.432727
4.993605 15.579389 31.472635
16.000971 -1.702023 15.689444
15.778258 -3.054556 16.347604
16.000971 28.297977 15.689444
15.778258 26.945444 16.347604
12.645103 5.593483 9.913183
11.922152 6.728024 9.171277
16.441593 19.128491 18.621795
17.578590 18.654718 17.686066
2.721189 14.462954 14.343113
3.980718 13.584765 14.100355
8.685790 25.548586 14.286829
8.711958 26.413644 12.924727
16.691693 21.873672 12.737292
16.259767 20.805754 11.678779
-3.337921 18.359630 15.020155
-2.260358 18.298347 16.070028
26.662079 18.359630 15.020155
27.739642 18.298347 16.070028
19.236771 25.544538 18.183104
18.975239 25.128027 19.638355
17.470056 18.086324 23.826079
18.220049 19.332046 24.446083
23.623152 1.888407 21.346316
22.387617 1.505059 20.420516
23.623152 31.888407 21.346316
22.387617 31.505059 20.420516
19.893846 24.801571 7.149735
19.389586 26.170442 7.735215
15.379091 23.794256 25.502145
15.599217 22.403764 25.040921
20.229761 19.904654 10.894585
21.154185 19.098170 11.779087
4.711911 -0.649805 14.138982
3.776207 -1.958098 14.060925
4.711911 29.350195 14.138982
3.776207 28.041902 14.060925
19.975463 15.199988 18.392494
20.754874 15.288413 17.086018
LINES 200 600
2 0 1
2 2 3
2 4 5
2 6 7
2 8 9
2 10 11
2 12 13
2 14 15
2 16 17
2 18 19
2 20 21
2 22 23
2 24 25
2 26 27
2 28 29
2 30 31
2 32 33
2 34 35
2 36 37
2 38 39
2 40 41
2 42 43
2 44 45
2 46 47
2 48 49
2 50 51
2 52 53
2 54 55
2 56 57
2 58 59
2 60 61
2 62 63
2 64 65
2 66 67
2 68 69
2 70 71
2 72 73
2 74 75
2 76 77
2 78 79
2 80 81
2 82 83
2 84 85
2 86 87
2 88 89
2 90 91
2 92 93
2 94 95
2 96 97
2 98 99
2 100 101
2 102 103
2 104 105
2 106 107
2 108 109
2 110 111
2 112 113
2 114 115
2 116 117
2 118 119
2 120 121
2 122 123
2 124 125
2 126 127
2 128 129
2 130 131
2 132 133
2 134 135
2 136 137
2 138 139
2 140 141
2 142 143
2 144 145
2 146 147
2 148 149
2 150 151
2 152 153
2 154 155
2 156 157
2 158 159
2 160 161
2 162 163
2 164 165
2 166 167
2 168 169
2 170 171
2 172 173
2 174 175
2 176 177
2 178 179
2 180 181
2 182 183
2 184 185
2 186 187
2 188 189
2 190 191
2 192 193
2 194 195
2 196 197
2 198 199
2 200 201
2 202 203
2 204 205
2 206 207
2 208 209
2 210 211
2 212 213
2 214 215
2 216 217
2 218 219
2 220 221
2 222 223
2 224 225
2 226 227
2 228 229
2 230 231
2 232 233
2 234 235
2 236 237
2 238 239
2 240 241
2 242 243
2 244 245
2 246 247
2 248 249
2 250 251
2 252 253
2 254 255
2 256 257
2 258 259
2 260 261
2 262 263
2 264 265
2 266 267
2 268 269
2 270 271
2 272 273
2 274 275
2 276 277
2 278 279
2 280 281
2 282 283
2 284 285
2 286 287
2 288 289
2 290 291
2 292 293
2 294 295
2 296 297
2 298 299
2 300 301
2 302 303
2 304 305
2 306 307
2 308 309
2 310 311
2 312 313
2 314 315
2 316 317
2 318 319
2 320 321
2 322 323
2 324 325
2 326 327
2 328 329
2 330 331
2 332 333
2 334 335
2 336 337
2 338 339
2 340 341
2 342 343
2 344 345
2 346 347
2 348 349
2 350 351
2 352 353
2 354 355
2 356 357
2 358 359
2 360 361
2 362 363
2 364 365
2 366 367
2 368 369
2 370 371
2 372 373
2 374 375
2 376 377
2 378 379
2 380 381
2 382 383
2 384 385
2 386 387
2 388 389
2 390 391
2 392 393
2 394 395
2 396 397
2 398 399
POINT_DATA 400
SCALARS my_scalars float
LOOKUP_TABLE default
1.7
1.7
1.7
1.7
1.7
1.7
1.7
1.7
1.7
1.7
1.7
1.7
1.7
1.7
1.7
1.7
1.7
1.7
1.7
1.7
1.7
1.7
1.7
1.7
1.7
1.7
1.7
1.7
1.7
1.7
1.7
1.7
1.7
1.7
1.7
1.7
1.7
1.7
1.7
1.7
1.7
1.7
1.7
1.7
1.7
1.7
1.7
1.7
1.7
1.7
1.7
1.7
1.7
1.7
1.7
1.7
1.7
1.7
1.7
1.7
1.7
1.7
1.7
1.7
1.7
1.7
1.7
1.7
1.7
1.7
1.7
1.7
1.7
1.7
1.7
1.7
1.7
1.7
1.7
1.7
1.7
1.7
1.7
1.7
1.7
1.7
1.7
1.7
1.7
1.7
1.7
1.7
1.7
1.7
1.7
1.7
1.7
1.7
1.7
1.7
1.7
1.7
1.7
1.7
1.7
1.7
1.7
1.7
1.7
1.7
1.7
1.7
1.7
1.7
1.7
1.7
1.7
1.7
1.7
1.7
1.7
1.7
1.7
1.7
1.7
1.7
1.7
1.7
1.7
1.7
1.7
1.7
1.7
1.7
1.7
1.7
1.7
1.7
1.7
1.7
1.7
1.7
1.7
1.7
1.7
1.7
1.7
1.7
1.7
1.7
1.7
1.7
1.7
1.7
1.7
1.7
1.7
1.7
1.7
1.7
1.7
1.7
1.7
1.7
1.7
1.7
1.7
1.7
1.7
1.7
1.7
1.7
1.7
1.7
1.7
1.7
1.7
1.7
1.7
1.7
1.7
1.7
1.7
1.7
1.7
1.7
1.7
1.7
1.7
1.7
1.7
1.7
1.7
1.7
1.7
1.7
1.7
1.7
1.7
1.7
1.7
1.7
1.7
1.7
1.7
1.7
1.7
1.7
1.7
1.7
1.7
1.7
1.7
1.7
1.7
1.7
1.7
1.7
1.7
1.7
1.7
1.7
1.7
1.7
1.7
1.7
1.7
1.7
1.7
1.7
1.7
1.7
1.7
1.7
1.7
1.7
1.7
1.7
1.7
1.7
1.7
1.7
1.7
1.7
1.7
1.7
1.7
1.7
1.7
1.7
1.7
1.7
1.7
1.7
1.7
1.7
1.7
1.7
1.7
1.7
1.7
1.7
1.7
1.7
1.7
1.7
1.7
1.7
1.7
1.7
1.7
1.7
1.7
1.7
1.7
1.7
1.7
1.7
1.7
1.7
1.7
1.7
1.7
1.7
1.7
1.7
1.7
1.7
1.7
1.7
1.7
1.7
1.7
1.7
1.7
1.7
1.7
1.7
1.7
1.7
1.7
1.7
1.7
1.7
1.7
1.7
1.7
1.7
1.7
1.7
1.7
1.7
1.7
1.7
1.7
1.7
1.7
1.7
1.7
1.7
1.7
1.7
1.7
1.7
1.7
1.7
1.7
1.7
1.7
1.7
1.7
1.7
1.7
1.7
1.7
1.7
1.7
1.7
1.7
1.7
1.7
1.7
1.7
1.7
1.7
1.7
1.7
1.7
1.7
1.7
1.7
1.7
1.7
1.7
1.7
1.7
1.7
1.7
1.7
1.7
1.7
1.7
1.7
1.7
1.7
1.7
1.7
1.7
1.7
1.7
1.7
1.7
1.7
1.7
1.7
1.7
1.7
1.7
1.7
1.7
1.7
1.7
1.7
1.7
1.7
1.7
1.7
1.7
1.7
1.7
1.7
1.7
1.7
1.7
1.7
1.7
1.7
1.7
1.7
1.7
VECTORS vectors float
0.3125 0 0
0.3125 0 0
0.3125 0 0
0.3125 0 0
0.3125 0 0
0.3125 0 0
0.3125 0 0
0.3125 0 0
0.3125 0 0
0.3125 0 0
0.3125 0 0
0.3125 0 0
0.3125 0 0
0.3125 0 0
0.3125 0 0
0.3125 0 0
0.3125 0 0
0.3125 0 0
0.3125 0 0
0.3125 0 0
0.3125 0 0
0.3125 0 0
0.3125 0 0
0.3125 0 0
0.3125 0 0
0.3125 0 0
0.3125 0 0
0.3125 0 0
0.3125 0 0
0.3125 0 0
0.3125 0 0
0.3125 0 0
0.3125 0 0
0.3125 0 0
0.3125 0 0
0.3125 0 0
0.3125 0 0
0.3125 0 0
0.3125 0 0
0.3125 0 0
0.3125 0 0
0.3125 0 0
0.3125 0 0
0.3125 0 0
0.3125 0 0
0.3125 0 0
0.3125 0 0
0.3125 0 0
0.3125 0 0
0.3125 0 0
0.3125 0 0
0.3125 0 0
0.3125 0 0
0.3125 0 0
0.3125 0 0
0.3125 0 0
0.3125 0 0
0.3125 0 0
0.3125 0 0
0.3125 0 0
0.3125 0 0
0.3125 0 0
0.3125 0 0
0.3125 0 0
0.3125 0 0
0.3125 0 0
0.3125 0 0
0.3125 0 0
0.3125 0 0
0.3125 0 0
0.3125 0 0
0.3125 0 0
0.3125 0 0
0.3125 0 0
0.3125 0 0
0.3125 0 0
0.3125 0 0
0.3125 0 0
0.3125 0 0
0.3125 0 0
0.3125 0 0
0.3125 0 0
0.3125 0 0
0.3125 0 0
0.3125 0 0
0.3125 0 0
0.3125 0 0
0.3125 0 0
0.3125 0 0
0.3125 0 0
0.3125 0 0
0.3125 0 0
0.3125 0 0
0.3125 0 0
0.3125 0 0
0.3125 0 0
0.3125 0 0
0.3125 0 0
0.3125 0 0
0.3125 0 0
0.3125 0 0
0.3125 0 0
0.3125 0 0
0.3125 0 0
0.3125 0 0
0.3125 0 0
0.3125 0 0
0.3125 0 0
0.3125 0 0
0.3125 0 0
0.3125 0 0
0.3125 0 0
0.3125 0 0
0.3125 0 0
0.3125 0 0
0.3125 0 0
0.3125 0 0
0.3125 0 0
0.3125 0 0
0.3125 0 0
0.3125 0 0
0.3125 0 0
0.3125 0 0
0.3125 0 0
0.3125 0 0
0.3125 0 0
0.3125 0 0
0.3125 0 0
0.3125 0 0
0.3125 0 0
0.3125 0 0
0.3125 0 0
0.3125 0 0
0.3125 0 0
0.3125 0 0
0.3125 0 0
0.3125 0 0
0.3125 0 0
0.3125 0 0
0.3125 0 0
0.3125 0 0
0.3125 0 0
0.3125 0 0
0.3125 0 0
0.3125 0 0
0.3125 0 0
0.3125 0 0
0.3125 0 0
0.3125 0 0
0.3125 0 0
0.3125 0 0
0.3125 0 0
0.3125 0 0
0.3125 0 0
0.3125 0 0
0.3125 0 0
0.3125 0 0
0.3125 0 0
0.3125 0 0
0.3125 0 0
0.3125 0 0
0.3125 0 0
0.3125 0 0
0.3125 0 0
0.3125 0 0
0.3125 0 0
0.3125 0 0
0.3125 0 0
0.3125 0 0
0.3125 0 0
0.3125 0 0
0.3125 0 0
0.3125 0 0
0.3125 0 0
0.3125 0 0
0.3125 0 0
0.3125 0 0
0.3125 0 0
0.3125 0 0
0.3125 0 0
0.3125 0 0
0.3125 0 0
0.3125 0 0
0.3125 0 0
0.3125 0 0
0.3125 0 0
0.3125 0 0
0.3125 0 0
0.3125 0 0
0.3125 0 0
0.3125 0 0
0.3125 0 0
0.3125 0 0
0.3125 0 0
0.3125 0 0
0.3125 0 0
0.3125 0 0
0.3125 0 0
0.3125 0 0
0.3125 0 0
0.3125 0 0
0.3125 0 0
0.3125 0 0
0.3125 0 0
0.3125 0 0
0.3125 0 0
0.3125 0 0
0.3125 0 0
0.3125 0 0
0.3125 0 0
0.3125 0 0
0.3125 0 0
0.3125 0 0
0.3125 0 0
0.3125 0 0
0.3125 0 0
0.3125 0 0
0.3125 0 0
0.3125 0 0
0.3125 0 0
0.3125 0 0
0.3125 0 0
0.3125 0 0
0.3125 0 0
0.3125 0 0
0.3125 0 0
0.3125 0 0
0.3125 0 0
0.3125 0 0
0.3125 0 0
0.3125 0 0
0.3125 0 0
0.3125 0 0
0.3125 0 0
0.3125 0 0
0.3125 0 0
0.3125 0 0
0.3125 0 0
0.3125 0 0
0.3125 0 0
0.3125 0 0
0.3125 0 0
0.3125 0 0
0.3125 0 0
0.3125 0 0
0.3125 0 0
0.3125 0 0
0.3125 0 0
0.3125 0 0
0.3125 0 0
0.3125 0 0
0.3125 0 0
0.3125 0 0
0.3125 0 0
0.3125 0 0
0.3125 0 0
0.3125 0 0
0.3125 0 0
0.3125 0 0
0.3125 0 0
0.3125 0 0
0.3125 0 0
0.3125 0 0
0.3125 0 0
0.3125 0 0
0.3125 0 0
0.3125 0 0
0.3125 0 0
0.3125 0 0
0.3125 0 0
0.3125 0 0
0.3125 0 0
0.3125 0 0
0.3125 0 0
0.3125 0 0
0.3125 0 0
0.3125 0 0
0.3125 0 0
0.3125 0 0
0.3125 0 0
0.3125 0 0
0.3125 0 0
0.3125 0 0
0.3125 0 0
0.3125 0 0
0.3125 0 0
0.3125 0 0
0.3125 0 0
0.3125 0 0
0.3125 0 0
0.3125 0 0
0.3125 0 0
0.3125 0 0
0.3125 0 0
0.3125 0 0
0.3125 0 0
0.3125 0 0
0.3125 0 0
0.3125 0 0
0.3125 0 0
0.3125 0 0
0.3125 0 0
0.3125 0 0
0.3125 0 0
0.3125 0 0
0.3125 0 0
0.3125 0 0
0.3125 0 0
0.3125 0 0
0.3125 0 0
0.3125 0 0
0.3125 0 0
0.3125 0 0
0.3125 0 0
0.3125 0 0
0.3125 0 0
0.3125 0 0
0.3125 0 0
0.3125 0 0
0.3125 0 0
0.3125 0 0
0.3125 0 0
0.3125 0 0
0.3125 0 0
0.3125 0 0
0.3125 0 0
0.3125 0 0
0.3125 0 0
0.3125 0 0
0.3125 0 0
0.3125 0 0
0.3125 0 0
0.3125 0 0
0.3125 0 0
0.3125 0 0
0.3125 0 0
0.3125 0 0
0.3125 0 0
0.3125 0 0
0.3125 0 0
0.3125 0 0
0.3125 0 0
0.3125 0 0
0.3125 0 0
0.3125 0 0
0.3125 0 0
0.3125 0 0
0.3125 0 0
0.3125 0 0
0.3125 0 0
0.3125 0 0
0.3125 0 0
0.3125 0 0
0.3125 0 0
0.3125 0 0
0.3125 0 0
0.3125 0 0
0.3125 0 0
0.3125 0 0
0.3125 0 0
0.3125 0 0
0.3125 0 0
0.3125 0 0
0.3125 0 0
0.3125 0 0
0.3125 0 0
0.3125 0 0
0.3125 0 0
0.3125 0 0
0.3125 0 0
0.3125 0 0
0.3125 0 0
0.3125 0 0
0.3125 0 0
0.3125 0 0
0.3125 0 0
0.3125 0 0
0.3125 0 0
0.3125 0 0
0.3125 0 0
0.3125 0 0
0.3125 0 0
0.3125 0 0
0.3125 0 0
0.3125 0 0
0.3125 0 0
0.3125 0 0
0.3125 0 0
0.3125 0 0
0.3125 0 0
0.3125 0 0
0.3125 0 0
0.3125 0 0
0.3125 0 0
0.3125 0 0
0.3125 0 0
0.3125 0 0
0.3125 0 0
0.3125 0 0
0.3125 0 0
