# vtk DataFile Version 1.0
Cube
ASCII

DATASET POLYDATA
POINTS 542 float
7.345760 -2.073945 9.308326
7.307242 -2.273693 7.790884
7.345760 27.926055 9.308326
7.307242 27.726307 7.790884
20.488493 18.798198 7.115074
19.276169 19.738023 7.008170
22.149911 7.454390 3.208121
23.011756 8.313005 2.203187
22.149911 7.454390 33.208121
23.011756 8.313005 32.203187
0.549422 9.126284 8.677789
0.671752 10.036341 10.006518
30.549422 9.126284 8.677789
30.671752 10.036341 10.006518
4.787320 26.306238 -2.050382
3.281852 26.601907 -2.418877
4.787320 26.306238 27.949618
3.281852 26.601907 27.581123
-1.226820 25.605397 6.323525
-0.039411 24.636162 6.318410
28.773180 25.605397 6.323525
29.960589 24.636162 6.318410
12.253341 2.805993 18.005705
12.218230 4.279748 18.266126
2.219718 2.583182 16.819529
2.348712 1.860694 15.413381
2.219718 32.583182 16.819529
2.348712 31.860694 15.413381
32.219718 2.583182 16.819529
32.348712 1.860694 15.413381
32.219718 32.583182 16.819529
32.348712 31.860694 15.413381
1.274136 15.383424 13.642666
0.073924 16.375714 13.703943
31.274136 15.383424 13.642666
30.073924 16.375714 13.703943
26.514057 6.088258 4.609313
26.221798 5.738762 3.119378
3.297662 1.122953 -2.072325
2.653083 2.481265 -2.451783
3.297662 1.122953 27.927675
2.653083 2.481265 27.548217
3.297662 31.122953 -2.072325
2.653083 32.481265 -2.451783
3.297662 31.122953 27.927675
2.653083 32.481265 27.548217
33.297662 1.122953 -2.072325
32.653083 2.481265 -2.451783
33.297662 1.122953 27.927675
32.653083 2.481265 27.548217
33.297662 31.122953 -2.072325
32.653083 32.481265 -2.451783
33.297662 31.122953 27.927675
32.653083 32.481265 27.548217
21.015348 5.338040 24.883460
21.399780 5.898577 23.521864
19.119482 2.221108 17.651311
19.757343 3.510348 16.879253
19.119482 32.221108 17.651311
19.757343 33.510348 16.879253
21.510735 26.082788 17.604514
22.809312 25.258248 17.061231
11.870586 10.387365 25.823104
12.511594 11.633411 26.719240
1.897482 0.490802 10.753701
1.376881 1.851422 10.213267
1.897482 30.490802 10.753701
1.376881 31.851422 10.213267
31.897482 0.490802 10.753701
31.376881 1.851422 10.213267
31.897482 30.490802 10.753701
31.376881 31.851422 10.213267
13.430613 5.070567 26.727506
13.047504 3.678776 26.272969
27.336202 22.325368 16.587614
26.293642 21.878067 17.622246
-0.630104 4.489577 15.308996
-1.658714 5.052997 14.270551
29.369896 4.489577 15.308996
28.341286 5.052997 14.270551
25.695638 17.118882 20.202415
25.662051 18.063777 19.145191
1.116400 7.695343 24.141050
1.760294 8.739587 23.238652
31.116400 7.695343 24.141050
31.760294 8.739587 23.238652
3.302428 14.125640 6.049113
4.360597 13.439026 6.819070
12.373128 5.148789 4.521893
13.277992 4.575074 5.536589
24.658785 14.887151 6.671346
23.630400 15.886677 7.035111
-0.597778 19.082948 9.020151
-1.949216 18.433584 9.455075
29.402222 19.082948 9.020151
28.050784 18.433584 9.455075
-2.087759 13.233904 10.644751
-2.007377 14.558480 9.682992
27.912241 13.233904 10.644751
27.992623 14.558480 9.682992
8.602249 -2.460747 17.915453
10.046233 -1.633344 17.932810
8.602249 27.539253 17.915453
10.046233 28.366656 17.932810
21.523500 20.807176 15.341634
22.842241 20.117227 15.785628
-0.928866 -0.478924 26.478426
-1.130717 0.976190 26.593402
-0.928866 29.521076 26.478426
-1.130717 30.976190 26.593402
29.071134 -0.478924 26.478426
28.869283 0.976190 26.593402
29.071134 29.521076 26.478426
28.869283 30.976190 26.593402
0.809724 25.762332 20.909923
1.596566 24.806030 21.595611
30.809724 25.762332 20.909923
31.596566 24.806030 21.595611
1.353303 10.706386 4.935075
1.100824 9.262764 4.464840
31.353303 10.706386 4.935075
31.100824 9.262764 4.464840
17.734954 17.102772 3.735946
16.801893 17.604426 4.903810
1.394918 10.988874 -2.401515
2.720595 10.755870 -1.712081
1.394918 10.988874 27.598485
2.720595 10.755870 28.287919
31.394918 10.988874 -2.401515
32.720595 10.755870 -1.712081
31.394918 10.988874 27.598485
32.720595 10.755870 28.287919
23.483041 0.701817 11.863657
22.936069 1.645235 13.055966
23.483041 30.701817 11.863657
22.936069 31.645235 13.055966
21.349186 20.242537 10.520166
22.139753 18.905458 10.549386
2.820428 6.545468 0.051044
4.217844 7.086227 -0.546707
2.820428 6.545468 30.051044
4.217844 7.086227 29.453293
11.988170 8.487575 2.183137
10.876874 9.268612 1.332640
11.988170 8.487575 32.183137
10.876874 9.268612 31.332640
16.396333 6.294331 3.118528
17.420084 5.259508 2.567796
16.396333 6.294331 33.118528
17.420084 5.259508 32.567796
9.355426 -0.021633 21.870729
10.485323 0.831506 21.362392
9.355426 29.978367 21.870729
10.485323 30.831506 21.362392
18.363332 8.274862 13.736129
18.839811 7.835656 15.273754
-2.335105 5.502854 8.262244
-1.418529 5.291824 9.435721
27.664895 5.502854 8.262244
28.581471 5.291824 9.435721
-2.003713 1.311606 0.369299
-0.617871 1.112820 0.759221
-2.003713 1.311606 30.369299
-0.617871 1.112820 30.759221
-2.003713 31.311606 0.369299
-0.617871 31.112820 0.759221
-2.003713 31.311606 30.369299
-0.617871 31.112820 30.759221
27.996287 1.311606 0.369299
29.382129 1.112820 0.759221
27.996287 1.311606 30.369299
29.382129 1.112820 30.759221
27.996287 31.311606 0.369299
29.382129 31.112820 0.759221
27.996287 31.311606 30.369299
29.382129 31.112820 30.759221
4.262493 13.466189 14.334834
4.820868 12.430153 15.341545
0.576268 18.082956 20.419031
-0.881820 17.809426 20.952112
30.576268 18.082956 20.419031
29.118180 17.809426 20.952112
10.628776 26.328000 6.080561
11.421559 27.595347 6.176818
15.116192 18.142990 0.748249
13.967501 18.299319 -0.207101
15.116192 18.142990 30.748249
13.967501 18.299319 29.792899
6.166146 20.647891 20.209447
5.524973 20.934599 21.481896
11.521180 6.708911 12.410368
12.467091 6.240335 13.406893
0.822472 1.228673 5.484485
2.155641 1.900795 5.050852
0.822472 31.228673 5.484485
2.155641 31.900795 5.050852
30.822472 1.228673 5.484485
32.155641 1.900795 5.050852
30.822472 31.228673 5.484485
32.155641 31.900795 5.050852
21.281881 12.009397 25.186015
20.274138 11.253241 26.091803
-2.535815 11.192657 5.222878
-3.126416 9.788209 5.115184
27.464185 11.192657 5.222878
26.873584 9.788209 5.115184
5.517390 0.640848 19.412637
5.120888 1.207407 20.774882
5.517390 30.640848 19.412637
5.120888 31.207407 20.774882
13.482903 22.155622 11.519088
14.464175 21.705937 12.594299
21.988972 -1.761335 3.015808
21.391212 -1.326992 1.669187
21.988972 -1.761335 33.015808
21.391212 -1.326992 31.669187
21.988972 28.238665 3.015808
21.391212 28.673008 1.669187
21.988972 28.238665 33.015808
21.391212 28.673008 31.669187
-2.959991 6.037640 24.944083
-1.977124 4.838193 25.198343
27.040009 6.037640 24.944083
28.022876 4.838193 25.198343
16.717904 1.345519 3.893129
17.546836 0.103022 3.626718
16.717904 31.345519 3.893129
17.546836 30.103022 3.626718
18.459133 9.238831 23.176889
17.550915 10.254628 23.695263
7.986686 4.129819 23.115849
7.817630 4.484275 21.669625
26.317162 16.886955 24.514002
25.407903 16.278078 25.575527
21.146332 10.641104 20.978761
21.772367 9.956721 19.667502
11.653014 18.042339 14.838498
12.321374 19.057492 14.028310
17.555970 0.892762 7.676227
18.242990 1.518157 8.936952
17.555970 30.892762 7.676227
18.242990 31.518157 8.936952
20.197779 25.551442 12.083865
21.605655 26.244599 11.924991
17.935559 18.034895 10.307077
18.239889 16.532843 10.511435
11.420734 25.395292 1.794569
10.144272 25.842742 2.540744
11.420734 25.395292 31.794569
10.144272 25.842742 32.540744
5.089562 14.467596 20.610953
5.081804 12.926694 20.583760
17.726580 14.082210 1.787451
16.208745 14.067626 1.980683
17.726580 14.082210 31.787451
16.208745 14.067626 31.980683
16.878430 24.407548 4.633813
18.009395 25.521072 4.701826
3.455982 7.019458 16.981724
2.877763 8.081415 17.836614
4.648997 26.091848 3.693839
4.903572 27.115320 2.574938
8.522063 1.119602 26.488953
7.545339 0.133963 25.950664
8.522063 31.119602 26.488953
7.545339 30.133963 25.950664
15.938759 1.900223 -0.423597
14.984061 1.052510 0.397819
15.938759 1.900223 29.576403
14.984061 1.052510 30.397819
15.938759 31.900223 -0.423597
14.984061 31.052510 0.397819
15.938759 31.900223 29.576403
14.984061 31.052510 30.397819
18.541708 5.394709 7.383558
17.178695 4.998271 7.015405
9.561445 19.046086 3.749792
8.926934 17.688622 3.659436
26.880128 12.901143 20.896288
26.825822 13.590108 19.654175
11.391813 14.604063 10.312011
11.284352 15.237196 11.606146
19.380794 2.414608 13.155794
18.156553 1.907908 13.777789
19.380794 32.414608 13.155794
18.156553 31.907908 13.777789
9.796060 14.516514 -1.590873
10.978423 14.031934 -0.835773
9.796060 14.516514 28.409127
10.978423 14.031934 29.164227
4.963616 11.742238 24.731057
6.154551 12.507158 25.194786
11.548469 -2.405768 24.973320
11.462792 -0.836032 24.836816
11.548469 27.594232 24.973320
11.462792 29.163968 24.836816
14.757199 8.855353 -2.872070
15.903796 9.772542 -2.746282
14.757199 8.855353 27.127930
15.903796 9.772542 27.253718
22.067444 17.725009 2.227730
21.439097 16.524695 1.401411
22.067444 17.725009 32.227730
21.439097 16.524695 31.401411
5.934666 23.561053 10.821310
5.326622 24.717815 11.642285
-3.408290 -0.108943 15.564613
-1.860773 -0.408359 15.256794
-3.408290 29.891057 15.564613
-1.860773 29.591641 15.256794
26.591710 -0.108943 15.564613
28.139227 -0.408359 15.256794
26.591710 29.891057 15.564613
28.139227 29.591641 15.256794
19.475322 -1.260739 25.384094
19.680369 -2.782976 25.878498
19.475322 28.739261 25.384094
19.680369 27.217024 25.878498
8.802616 13.351587 5.762604
8.293340 12.353264 6.882985
0.953717 -1.898948 8.142628
-0.346898 -1.958436 8.773699
0.953717 28.101052 8.142628
-0.346898 28.041564 8.773699
30.953717 -1.898948 8.142628
29.653102 -1.958436 8.773699
30.953717 28.101052 8.142628
29.653102 28.041564 8.773699
4.751807 14.809366 0.078760
4.223036 16.225455 -0.132084
4.751807 14.809366 30.078760
4.223036 16.225455 29.867916
23.063689 6.516449 17.058496
24.406216 5.815156 16.689302
18.694403 16.389444 -2.294163
19.264310 17.194519 -3.408546
18.694403 16.389444 27.705837
19.264310 17.194519 26.591454
9.805063 13.970888 23.156921
9.682748 13.639675 21.643764
11.452264 13.732681 2.890686
12.580868 14.719421 3.290250
8.821075 18.807813 25.916571
10.268813 18.331486 26.074045
11.291642 2.283340 -0.110541
9.928753 1.641031 0.243434
11.291642 2.283340 29.889459
9.928753 1.641031 30.243434
11.291642 32.283340 -0.110541
9.928753 31.641031 0.243434
11.291642 32.283340 29.889459
9.928753 31.641031 30.243434
-2.572704 25.922375 14.124523
-1.347591 25.544258 13.481043
27.427296 25.922375 14.124523
28.652409 25.544258 13.481043
0.988967 15.788123 23.420427
0.878360 15.073771 24.755627
30.988967 15.788123 23.420427
30.878360 15.073771 24.755627
1.646608 23.845926 11.247168
2.058786 22.646951 12.036087
31.646608 23.845926 11.247168
32.058786 22.646951 12.036087
1.142050 26.622632 1.062224
-0.081577 26.152729 0.101280
1.142050 26.622632 31.062224
-0.081577 26.152729 30.101280
31.142050 26.622632 1.062224
29.918423 26.152729 0.101280
31.142050 26.622632 31.062224
29.918423 26.152729 30.101280
8.773315 3.637442 7.694280
10.274453 3.361080 7.215976
26.667691 25.953443 3.779209
26.534784 25.289173 2.361508
1.882015 20.306620 16.563833
2.691365 20.392251 15.318039
31.882015 20.306620 16.563833
32.691365 20.392251 15.318039
15.694841 19.602546 16.399599
16.277448 20.834673 15.766441
25.572749 16.143511 13.766896
24.706580 17.269824 14.458014
24.714447 10.221427 14.730108
24.835068 9.859518 16.193561
24.818052 -1.000003 -2.894296
25.173881 0.489151 -2.360451
24.818052 -1.000003 27.105704
25.173881 0.489151 27.639549
24.818052 28.999997 -2.894296
25.173881 30.489151 -2.360451
24.818052 28.999997 27.105704
25.173881 30.489151 27.639549
5.831316 1.112218 0.591984
4.994741 1.328962 1.898597
5.831316 1.112218 30.591984
4.994741 1.328962 31.898597
5.831316 31.112218 0.591984
4.994741 31.328962 1.898597
5.831316 31.112218 30.591984
4.994741 31.328962 31.898597
7.589845 8.296714 -1.585330
7.034667 9.594928 -1.049222
7.589845 8.296714 28.414670
7.034667 9.594928 28.950778
14.606176 13.016227 8.375616
15.496699 11.711833 8.293518
3.315486 22.299552 -1.977482
2.998388 22.689661 -3.365924
3.315486 22.299552 28.022518
2.998388 22.689661 26.634076
24.474265 16.126530 10.326192
23.978046 14.672727 10.039812
7.318654 4.948251 1.153435
7.565039 4.455519 -0.269858
7.318654 4.948251 31.153435
7.565039 4.455519 29.730142
7.752158 0.649159 3.985161
9.016580 0.188341 4.776315
7.752158 30.649159 3.985161
9.016580 30.188341 4.776315
10.205959 13.511437 14.535921
11.041198 12.973407 15.711913
3.640414 18.707712 25.626831
4.547932 17.589923 24.977176
25.270817 4.524143 20.055784
24.032169 4.985660 20.699977
0.793359 10.953940 16.894941
0.150657 11.523541 15.697925
30.793359 10.953940 16.894941
30.150657 11.523541 15.697925
12.872930 19.353742 6.529494
14.026379 19.186008 7.515363
24.375712 8.304367 7.871064
23.124925 8.225461 8.769322
-2.956301 8.243056 19.662820
-1.898617 8.746953 18.697793
27.043699 8.243056 19.662820
28.101383 8.746953 18.697793
24.784408 6.369015 -0.551449
25.979132 7.055475 -1.225365
24.784408 6.369015 29.448551
25.979132 7.055475 28.774635
10.529556 21.014756 22.127059
12.062942 20.901589 21.769972
9.415263 19.730176 9.451044
9.328838 18.641894 8.301686
5.004585 10.877314 2.412129
5.871719 11.970539 2.865582
5.004585 10.877314 32.412129
5.871719 11.970539 32.865582
6.798949 8.819456 9.598083
5.284445 8.598153 9.176828
21.448271 12.267750 16.936892
20.054408 12.450778 16.435917
8.141675 15.747297 17.410504
8.529699 16.288483 18.709992
23.736904 26.539138 8.437439
25.245052 27.101618 8.835869
21.557395 16.646103 18.456530
22.458916 15.419976 18.584307
17.010965 -2.965479 -0.551518
17.574002 -2.879050 0.819706
17.010965 -2.965479 29.448482
17.574002 -2.879050 30.819706
17.010965 27.034521 -0.551518
17.574002 27.120950 0.819706
17.010965 27.034521 29.448482
17.574002 27.120950 30.819706
12.359653 12.425408 5.489538
12.899270 11.029884 5.460461
13.726797 4.586175 10.527572
14.779740 5.726508 10.449376
4.204171 5.939681 11.864337
2.917501 5.026189 11.960114
26.028901 21.153137 2.128525
27.396634 20.625768 2.815476
26.028901 21.153137 32.128525
27.396634 20.625768 32.815476
26.999199 22.342172 21.592338
26.758793 23.585582 20.873114
-3.378174 13.582721 0.046361
-1.865211 13.485436 -0.180963
-3.378174 13.582721 30.046361
-1.865211 13.485436 29.819037
26.621826 13.582721 0.046361
28.134789 13.485436 -0.180963
26.621826 13.582721 30.046361
28.134789 13.485436 29.819037
0.578480 19.045508 4.805881
1.223781 20.191257 3.998147
30.578480 19.045508 4.805881
31.223781 20.191257 3.998147
26.247171 23.754899 8.128629
27.105233 23.719647 9.275337
20.782212 20.747333 21.321490
19.897833 20.270538 20.071644
0.984406 4.201437 20.542150
0.220268 3.982838 21.875499
30.984406 4.201437 20.542150
30.220268 3.982838 21.875499
2.871562 4.805201 25.038749
4.260415 4.615184 24.497566
25.557966 10.359953 -0.042762
25.105576 10.265045 1.440761
25.557966 10.359953 29.957238
25.105576 10.265045 31.440761
7.492508 23.728994 25.154434
8.696664 22.809869 25.688499
19.735807 21.849943 25.683735
19.998547 23.365572 25.865654
8.800013 8.416689 16.755395
7.497595 8.779412 15.985970
0.495348 17.759902 0.403986
0.500090 19.283862 0.316392
0.495348 17.759902 30.403986
0.500090 19.283862 30.316392
30.495348 17.759902 0.403986
30.500090 19.283862 0.316392
30.495348 17.759902 30.403986
30.500090 19.283862 30.316392
5.810696 0.909184 13.701024
6.371013 0.698323 15.077347
5.810696 30.909184 13.701024
6.371013 30.698323 15.077347
21.429894 3.156280 -0.991801
20.036764 2.752225 -1.410994
21.429894 3.156280 29.008199
20.036764 2.752225 28.589006
21.429894 33.156280 -0.991801
20.036764 32.752225 -1.410994
21.429894 33.156280 29.008199
20.036764 32.752225 28.589006
22.296997 24.462790 2.844801
21.841172 23.312581 3.911620
13.319100 2.553897 14.121650
14.621220 2.706499 14.949304
13.319100 32.553897 14.121650
14.621220 32.706499 14.949304
10.220406 20.909386 17.840472
9.864351 19.595084 18.578378
LINES 271 813
2 0 1
2 2 3
2 4 5
2 6 7
2 8 9
2 10 11
2 12 13
2 14 15
2 16 17
2 18 19
2 20 21
2 22 23
2 24 25
2 26 27
2 28 29
2 30 31
2 32 33
2 34 35
2 36 37
2 38 39
2 40 41
2 42 43
2 44 45
2 46 47
2 48 49
2 50 51
2 52 53
2 54 55
2 56 57
2 58 59
2 60 61
2 62 63
2 64 65
2 66 67
2 68 69
2 70 71
2 72 73
2 74 75
2 76 77
2 78 79
2 80 81
2 82 83
2 84 85
2 86 87
2 88 89
2 90 91
2 92 93
2 94 95
2 96 97
2 98 99
2 100 101
2 102 103
2 104 105
2 106 107
2 108 109
2 110 111
2 112 113
2 114 115
2 116 117
2 118 119
2 120 121
2 122 123
2 124 125
2 126 127
2 128 129
2 130 131
2 132 133
2 134 135
2 136 137
2 138 139
2 140 141
2 142 143
2 144 145
2 146 147
2 148 149
2 150 151
2 152 153
2 154 155
2 156 157
2 158 159
2 160 161
2 162 163
2 164 165
2 166 167
2 168 169
2 170 171
2 172 173
2 174 175
2 176 177
2 178 179
2 180 181
2 182 183
2 184 185
2 186 187
2 188 189
2 190 191
2 192 193
2 194 195
2 196 197
2 198 199
2 200 201
2 202 203
2 204 205
2 206 207
2 208 209
2 210 211
2 212 213
2 214 215
2 216 217
2 218 219
2 220 221
2 222 223
2 224 225
2 226 227
2 228 229
2 230 231
2 232 233
2 234 235
2 236 237
2 238 239
2 240 241
2 242 243
2 244 245
2 246 247
2 248 249
2 250 251
2 252 253
2 254 255
2 256 257
2 258 259
2 260 261
2 262 263
2 264 265
2 266 267
2 268 269
2 270 271
2 272 273
2 274 275
2 276 277
2 278 279
2 280 281
2 282 283
2 284 285
2 286 287
2 288 289
2 290 291
2 292 293
2 294 295
2 296 297
2 298 299
2 300 301
2 302 303
2 304 305
2 306 307
2 308 309
2 310 311
2 312 313
2 314 315
2 316 317
2 318 319
2 320 321
2 322 323
2 324 325
2 326 327
2 328 329
2 330 331
2 332 333
2 334 335
2 336 337
2 338 339
2 340 341
2 342 343
2 344 345
2 346 347
2 348 349
2 350 351
2 352 353
2 354 355
2 356 357
2 358 359
2 360 361
2 362 363
2 364 365
2 366 367
2 368 369
2 370 371
2 372 373
2 374 375
2 376 377
2 378 379
2 380 381
2 382 383
2 384 385
2 386 387
2 388 389
2 390 391
2 392 393
2 394 395
2 396 397
2 398 399
2 400 401
2 402 403
2 404 405
2 406 407
2 408 409
2 410 411
2 412 413
2 414 415
2 416 417
2 418 419
2 420 421
2 422 423
2 424 425
2 426 427
2 428 429
2 430 431
2 432 433
2 434 435
2 436 437
2 438 439
2 440 441
2 442 443
2 444 445
2 446 447
2 448 449
2 450 451
2 452 453
2 454 455
2 456 457
2 458 459
2 460 461
2 462 463
2 464 465
2 466 467
2 468 469
2 470 471
2 472 473
2 474 475
2 476 477
2 478 479
2 480 481
2 482 483
2 484 485
2 486 487
2 488 489
2 490 491
2 492 493
2 494 495
2 496 497
2 498 499
2 500 501
2 502 503
2 504 505
2 506 507
2 508 509
2 510 511
2 512 513
2 514 515
2 516 517
2 518 519
2 520 521
2 522 523
2 524 525
2 526 527
2 528 529
2 530 531
2 532 533
2 534 535
2 536 537
2 538 539
2 540 541
POINT_DATA 542
SCALARS my_scalars float
LOOKUP_TABLE default
1.7
1.7
1.7
1.7
1.7
1.7
1.7
1.7
1.7
1.7
1.7
1.7
1.7
1.7
1.7
1.7
1.7
1.7
1.7
1.7
1.7
1.7
1.7
1.7
1.7
1.7
1.7
1.7
1.7
1.7
1.7
1.7
1.7
1.7
1.7
1.7
1.7
1.7
1.7
1.7
1.7
1.7
1.7
1.7
1.7
1.7
1.7
1.7
1.7
1.7
1.7
1.7
1.7
1.7
1.7
1.7
1.7
1.7
1.7
1.7
1.7
1.7
1.7
1.7
1.7
1.7
1.7
1.7
1.7
1.7
1.7
1.7
1.7
1.7
1.7
1.7
1.7
1.7
1.7
1.7
1.7
1.7
1.7
1.7
1.7
1.7
1.7
1.7
1.7
1.7
1.7
1.7
1.7
1.7
1.7
1.7
1.7
1.7
1.7
1.7
1.7
1.7
1.7
1.7
1.7
1.7
1.7
1.7
1.7
1.7
1.7
1.7
1.7
1.7
1.7
1.7
1.7
1.7
1.7
1.7
1.7
1.7
1.7
1.7
1.7
1.7
1.7
1.7
1.7
1.7
1.7
1.7
1.7
1.7
1.7
1.7
1.7
1.7
1.7
1.7
1.7
1.7
1.7
1.7
1.7
1.7
1.7
1.7
1.7
1.7
1.7
1.7
1.7
1.7
1.7
1.7
1.7
1.7
1.7
1.7
1.7
1.7
1.7
1.7
1.7
1.7
1.7
1.7
1.7
1.7
1.7
1.7
1.7
1.7
1.7
1.7
1.7
1.7
1.7
1.7
1.7
1.7
1.7
1.7
1.7
1.7
1.7
1.7
1.7
1.7
1.7
1.7
1.7
1.7
1.7
1.7
1.7
1.7
1.7
1.7
1.7
1.7
1.7
1.7
1.7
1.7
1.7
1.7
1.7
1.7
1.7
1.7
1.7
1.7
1.7
1.7
1.7
1.7
1.7
1.7
1.7
1.7
1.7
1.7
1.7
1.7
1.7
1.7
1.7
1.7
1.7
1.7
1.7
1.7
1.7
1.7
1.7
1.7
1.7
1.7
1.7
1.7
1.7
1.7
1.7
1.7
1.7
1.7
1.7
1.7
1.7
1.7
1.7
1.7
1.7
1.7
1.7
1.7
1.7
1.7
1.7
1.7
1.7
1.7
1.7
1.7
1.7
1.7
1.7
1.7
1.7
1.7
1.7
1.7
1.7
1.7
1.7
1.7
1.7
1.7
1.7
1.7
1.7
1.7
1.7
1.7
1.7
1.7
1.7
1.7
1.7
1.7
1.7
1.7
1.7
1.7
1.7
1.7
1.7
1.7
1.7
1.7
1.7
1.7
1.7
1.7
1.7
1.7
1.7
1.7
1.7
1.7
1.7
1.7
1.7
1.7
1.7
1.7
1.7
1.7
1.7
1.7
1.7
1.7
1.7
1.7
1.7
1.7
1.7
1.7
1.7
1.7
1.7
1.7
1.7
1.7
1.7
1.7
1.7
1.7
1.7
1.7
1.7
1.7
1.7
1.7
1.7
1.7
1.7
1.7
1.7
1.7
1.7
1.7
1.7
1.7
1.7
1.7
1.7
1.7
1.7
1.7
1.7
1.7
1.7
1.7
1.7
1.7
1.7
1.7
1.7
1.7
1.7
1.7
1.7
1.7
1.7
1.7
1.7
1.7
1.7
1.7
1.7
1.7
1.7
1.7
1.7
1.7
1.7
1.7
1.7
1.7
1.7
1.7
1.7
1.7
1.7
1.7
1.7
1.7
1.7
1.7
1.7
1.7
1.7
1.7
1.7
1.7
1.7
1.7
1.7
1.7
1.7
1.7
1.7
1.7
1.7
1.7
1.7
1.7
1.7
1.7
1.7
1.7
1.7
1.7
1.7
1.7
1.7
1.7
1.7
1.7
1.7
1.7
1.7
1.7
1.7
1.7
1.7
1.7
1.7
1.7
1.7
1.7
1.7
1.7
1.7
1.7
1.7
1.7
1.7
1.7
1.7
1.7
1.7
1.7
1.7
1.7
1.7
1.7
1.7
1.7
1.7
1.7
1.7
1.7
1.7
1.7
1.7
1.7
1.7
1.7
1.7
1.7
1.7
1.7
1.7
1.7
1.7
1.7
1.7
1.7
1.7
1.7
1.7
1.7
1.7
1.7
1.7
1.7
1.7
1.7
1.7
1.7
1.7
1.7
1.7
1.7
1.7
1.7
1.7
1.7
1.7
1.7
1.7
1.7
1.7
1.7
1.7
1.7
1.7
1.7
1.7
1.7
1.7
1.7
1.7
1.7
1.7
1.7
1.7
1.7
1.7
1.7
1.7
1.7
1.7
1.7
1.7
1.7
1.7
1.7
1.7
1.7
1.7
1.7
1.7
1.7
1.7
1.7
1.7
1.7
VECTORS vectors float
0.3125 0 0
0.3125 0 0
0.3125 0 0
0.3125 0 0
0.3125 0 0
0.3125 0 0
0.3125 0 0
0.3125 0 0
0.3125 0 0
0.3125 0 0
0.3125 0 0
0.3125 0 0
0.3125 0 0
0.3125 0 0
0.3125 0 0
0.3125 0 0
0.3125 0 0
0.3125 0 0
0.3125 0 0
0.3125 0 0
0.3125 0 0
0.3125 0 0
0.3125 0 0
0.3125 0 0
0.3125 0 0
0.3125 0 0
0.3125 0 0
0.3125 0 0
0.3125 0 0
0.3125 0 0
0.3125 0 0
0.3125 0 0
0.3125 0 0
0.3125 0 0
0.3125 0 0
0.3125 0 0
0.3125 0 0
0.3125 0 0
0.3125 0 0
0.3125 0 0
0.3125 0 0
0.3125 0 0
0.3125 0 0
0.3125 0 0
0.3125 0 0
0.3125 0 0
0.3125 0 0
0.3125 0 0
0.3125 0 0
0.3125 0 0
0.3125 0 0
0.3125 0 0
0.3125 0 0
0.3125 0 0
0.3125 0 0
0.3125 0 0
0.3125 0 0
0.3125 0 0
0.3125 0 0
0.3125 0 0
0.3125 0 0
0.3125 0 0
0.3125 0 0
0.3125 0 0
0.3125 0 0
0.3125 0 0
0.3125 0 0
0.3125 0 0
0.3125 0 0
0.3125 0 0
0.3125 0 0
0.3125 0 0
0.3125 0 0
0.3125 0 0
0.3125 0 0
0.3125 0 0
0.3125 0 0
0.3125 0 0
0.3125 0 0
0.3125 0 0
0.3125 0 0
0.3125 0 0
0.3125 0 0
0.3125 0 0
0.3125 0 0
0.3125 0 0
0.3125 0 0
0.3125 0 0
0.3125 0 0
0.3125 0 0
0.3125 0 0
0.3125 0 0
0.3125 0 0
0.3125 0 0
0.3125 0 0
0.3125 0 0
0.3125 0 0
0.3125 0 0
0.3125 0 0
0.3125 0 0
0.3125 0 0
0.3125 0 0
0.3125 0 0
0.3125 0 0
0.3125 0 0
0.3125 0 0
0.3125 0 0
0.3125 0 0
0.3125 0 0
0.3125 0 0
0.3125 0 0
0.3125 0 0
0.3125 0 0
0.3125 0 0
0.3125 0 0
0.3125 0 0
0.3125 0 0
0.3125 0 0
0.3125 0 0
0.3125 0 0
0.3125 0 0
0.3125 0 0
0.3125 0 0
0.3125 0 0
0.3125 0 0
0.3125 0 0
0.3125 0 0
0.3125 0 0
0.3125 0 0
0.3125 0 0
0.3125 0 0
0.3125 0 0
0.3125 0 0
0.3125 0 0
0.3125 0 0
0.3125 0 0
0.3125 0 0
0.3125 0 0
0.3125 0 0
0.3125 0 0
0.3125 0 0
0.3125 0 0
0.3125 0 0
0.3125 0 0
0.3125 0 0
0.3125 0 0
0.3125 0 0
0.3125 0 0
0.3125 0 0
0.3125 0 0
0.3125 0 0
0.3125 0 0
0.3125 0 0
0.3125 0 0
0.3125 0 0
0.3125 0 0
0.3125 0 0
0.3125 0 0
0.3125 0 0
0.3125 0 0
0.3125 0 0
0.3125 0 0
0.3125 0 0
0.3125 0 0
0.3125 0 0
0.3125 0 0
0.3125 0 0
0.3125 0 0
0.3125 0 0
0.3125 0 0
0.3125 0 0
0.3125 0 0
0.3125 0 0
0.3125 0 0
0.3125 0 0
0.3125 0 0
0.3125 0 0
0.3125 0 0
0.3125 0 0
0.3125 0 0
0.3125 0 0
0.3125 0 0
0.3125 0 0
0.3125 0 0
0.3125 0 0
0.3125 0 0
0.3125 0 0
0.3125 0 0
0.3125 0 0
0.3125 0 0
0.3125 0 0
0.3125 0 0
0.3125 0 0
0.3125 0 0
0.3125 0 0
0.3125 0 0
0.3125 0 0
0.3125 0 0
0.3125 0 0
0.3125 0 0
0.3125 0 0
0.3125 0 0
0.3125 0 0
0.3125 0 0
0.3125 0 0
0.3125 0 0
0.3125 0 0
0.3125 0 0
0.3125 0 0
0.3125 0 0
0.3125 0 0
0.3125 0 0
0.3125 0 0
0.3125 0 0
0.3125 0 0
0.3125 0 0
0.3125 0 0
0.3125 0 0
0.3125 0 0
0.3125 0 0
0.3125 0 0
0.3125 0 0
0.3125 0 0
0.3125 0 0
0.3125 0 0
0.3125 0 0
0.3125 0 0
0.3125 0 0
0.3125 0 0
0.3125 0 0
0.3125 0 0
0.3125 0 0
0.3125 0 0
0.3125 0 0
0.3125 0 0
0.3125 0 0
0.3125 0 0
0.3125 0 0
0.3125 0 0
0.3125 0 0
0.3125 0 0
0.3125 0 0
0.3125 0 0
0.3125 0 0
0.3125 0 0
0.3125 0 0
0.3125 0 0
0.3125 0 0
0.3125 0 0
0.3125 0 0
0.3125 0 0
0.3125 0 0
0.3125 0 0
0.3125 0 0
0.3125 0 0
0.3125 0 0
0.3125 0 0
0.3125 0 0
0.3125 0 0
0.3125 0 0
0.3125 0 0
0.3125 0 0
0.3125 0 0
0.3125 0 0
0.3125 0 0
0.3125 0 0
0.3125 0 0
0.3125 0 0
0.3125 0 0
0.3125 0 0
0.3125 0 0
0.3125 0 0
0.3125 0 0
0.3125 0 0
0.3125 0 0
0.3125 0 0
0.3125 0 0
0.3125 0 0
0.3125 0 0
0.3125 0 0
0.3125 0 0
0.3125 0 0
0.3125 0 0
0.3125 0 0
0.3125 0 0
0.3125 0 0
0.3125 0 0
0.3125 0 0
0.3125 0 0
0.3125 0 0
0.3125 0 0
0.3125 0 0
0.3125 0 0
0.3125 0 0
0.3125 0 0
0.3125 0 0
0.3125 0 0
0.3125 0 0
0.3125 0 0
0.3125 0 0
0.3125 0 0
0.3125 0 0
0.3125 0 0
0.3125 0 0
0.3125 0 0
0.3125 0 0
0.3125 0 0
0.3125 0 0
0.3125 0 0
0.3125 0 0
0.3125 0 0
0.3125 0 0
0.3125 0 0
0.3125 0 0
0.3125 0 0
0.3125 0 0
0.3125 0 0
0.3125 0 0
0.3125 0 0
0.3125 0 0
0.3125 0 0
0.3125 0 0
0.3125 0 0
0.3125 0 0
0.3125 0 0
0.3125 0 0
0.3125 0 0
0.3125 0 0
0.3125 0 0
0.3125 0 0
0.3125 0 0
0.3125 0 0
0.3125 0 0
0.3125 0 0
0.3125 0 0
0.3125 0 0
0.3125 0 0
0.3125 0 0
0.3125 0 0
0.3125 0 0
0.3125 0 0
0.3125 0 0
0.3125 0 0
0.3125 0 0
0.3125 0 0
0.3125 0 0
0.3125 0 0
0.3125 0 0
0.3125 0 0
0.3125 0 0
0.3125 0 0
0.3125 0 0
0.3125 0 0
0.3125 0 0
0.3125 0 0
0.3125 0 0
0.3125 0 0
0.3125 0 0
0.3125 0 0
0.3125 0 0
0.3125 0 0
0.3125 0 0
0.3125 0 0
0.3125 0 0
0.3125 0 0
0.3125 0 0
0.3125 0 0
0.3125 0 0
0.3125 0 0
0.3125 0 0
0.3125 0 0
0.3125 0 0
0.3125 0 0
0.3125 0 0
0.3125 0 0
0.3125 0 0
0.3125 0 0
0.3125 0 0
0.3125 0 0
0.3125 0 0
0.3125 0 0
0.3125 0 0
0.3125 0 0
0.3125 0 0
0.3125 0 0
0.3125 0 0
0.3125 0 0
0.3125 0 0
0.3125 0 0
0.3125 0 0
0.3125 0 0
0.3125 0 0
0.3125 0 0
0.3125 0 0
0.3125 0 0
0.3125 0 0
0.3125 0 0
0.3125 0 0
0.3125 0 0
0.3125 0 0
0.3125 0 0
0.3125 0 0
0.3125 0 0
0.3125 0 0
0.3125 0 0
0.3125 0 0
0.3125 0 0
0.3125 0 0
0.3125 0 0
0.3125 0 0
0.3125 0 0
0.3125 0 0
0.3125 0 0
0.3125 0 0
0.3125 0 0
0.3125 0 0
0.3125 0 0
0.3125 0 0
0.3125 0 0
0.3125 0 0
0.3125 0 0
0.3125 0 0
0.3125 0 0
0.3125 0 0
0.3125 0 0
0.3125 0 0
0.3125 0 0
0.3125 0 0
0.3125 0 0
0.3125 0 0
0.3125 0 0
0.3125 0 0
0.3125 0 0
0.3125 0 0
0.3125 0 0
0.3125 0 0
0.3125 0 0
0.3125 0 0
0.3125 0 0
0.3125 0 0
0.3125 0 0
0.3125 0 0
0.3125 0 0
0.3125 0 0
0.3125 0 0
0.3125 0 0
0.3125 0 0
0.3125 0 0
0.3125 0 0
0.3125 0 0
0.3125 0 0
0.3125 0 0
0.3125 0 0
0.3125 0 0
0.3125 0 0
0.3125 0 0
0.3125 0 0
0.3125 0 0
0.3125 0 0
0.3125 0 0
0.3125 0 0
0.3125 0 0
0.3125 0 0
0.3125 0 0
0.3125 0 0
0.3125 0 0
0.3125 0 0
0.3125 0 0
0.3125 0 0
0.3125 0 0
0.3125 0 0
0.3125 0 0
0.3125 0 0
0.3125 0 0
0.3125 0 0
0.3125 0 0
0.3125 0 0
0.3125 0 0
0.3125 0 0
0.3125 0 0
0.3125 0 0
0.3125 0 0
0.3125 0 0
0.3125 0 0
0.3125 0 0
0.3125 0 0
0.3125 0 0
0.3125 0 0
0.3125 0 0
0.3125 0 0
0.3125 0 0
0.3125 0 0
0.3125 0 0
0.3125 0 0
0.3125 0 0
0.3125 0 0
0.3125 0 0
0.3125 0 0
0.3125 0 0
0.3125 0 0
0.3125 0 0
0.3125 0 0
0.3125 0 0
0.3125 0 0
0.3125 0 0
0.3125 0 0
0.3125 0 0
0.3125 0 0
0.3125 0 0
0.3125 0 0
0.3125 0 0
0.3125 0 0
0.3125 0 0
0.3125 0 0
0.3125 0 0
0.3125 0 0
0.3125 0 0
0.3125 0 0
0.3125 0 0
0.3125 0 0
0.3125 0 0
0.3125 0 0
0.3125 0 0
0.3125 0 0
0.3125 0 0
0.3125 0 0
0.3125 0 0
0.3125 0 0
0.3125 0 0
0.3125 0 0
0.3125 0 0
0.3125 0 0
0.3125 0 0
0.3125 0 0
0.3125 0 0
0.3125 0 0
0.3125 0 0
0.3125 0 0
0.3125 0 0
0.3125 0 0
0.3125 0 0
0.3125 0 0
