# vtk DataFile Version 1.0
Cube
ASCII

DATASET POLYDATA
POINTS 494 float
7.091964 11.317056 2.546577
7.829933 11.460456 3.982765
6.017303 21.646682 -1.702135
6.166023 20.447349 -2.697777
6.017303 21.646682 28.297865
6.166023 20.447349 27.302223
19.594214 -2.585610 14.179223
20.483078 -1.694741 13.197397
19.594214 27.414390 14.179223
20.483078 28.305259 13.197397
17.495927 14.380959 19.779453
16.133699 14.892781 19.522104
23.627021 5.947812 -0.226911
23.485731 4.354649 -0.231537
23.627021 5.947812 29.773089
23.485731 4.354649 29.768463
-1.853710 -1.206905 23.821804
-2.891461 -1.567121 22.712839
-1.853710 28.793095 23.821804
-2.891461 28.432879 22.712839
28.146290 -1.206905 23.821804
27.108539 -1.567121 22.712839
28.146290 28.793095 23.821804
27.108539 28.432879 22.712839
0.861711 11.189560 21.641200
1.724502 12.087895 22.561537
30.861711 11.189560 21.641200
31.724502 12.087895 22.561537
12.869488 6.016742 3.344399
13.234932 7.415912 2.640482
12.869488 6.016742 33.344399
13.234932 7.415912 32.640482
17.719614 7.350491 21.614542
17.518490 8.235506 20.338546
2.475562 0.850965 13.109705
3.260645 1.851034 14.070565
2.475562 30.850965 13.109705
3.260645 31.851034 14.070565
32.475562 0.850965 13.109705
33.260645 1.851034 14.070565
32.475562 30.850965 13.109705
33.260645 31.851034 14.070565
11.260680 22.108881 15.304371
11.462363 21.544917 16.715808
14.933286 8.654441 10.402584
14.114348 9.489532 9.385507
20.852304 19.548098 11.591117
21.681516 19.964703 12.737667
2.366218 22.272753 23.990195
2.780632 21.500070 22.704153
32.366218 22.272753 23.990195
32.780632 21.500070 22.704153
9.413094 21.781235 1.369601
9.858636 20.895666 0.203037
9.413094 21.781235 31.369601
9.858636 20.895666 30.203037
19.601845 11.335797 3.472244
18.946461 11.216029 2.065228
19.601845 11.335797 33.472244
18.946461 11.216029 32.065228
6.601668 2.165710 4.775183
6.686069 1.614185 3.414249
6.601668 32.165710 4.775183
6.686069 31.614185 3.414249
-1.799152 -2.130807 9.633315
-0.502862 -2.061948 10.556034
-1.799152 27.869193 9.633315
-0.502862 27.938052 10.556034
28.200848 -2.130807 9.633315
29.497138 -2.061948 10.556034
28.200848 27.869193 9.633315
29.497138 27.938052 10.556034
18.533609 11.374500 17.799654
18.137015 12.041492 16.483202
5.652542 2.462406 27.451800
6.688693 2.159587 26.267102
5.652542 32.462406 27.451800
6.688693 32.159587 26.267102
12.290160 12.806510 5.707584
13.075366 12.571877 7.118493
10.307334 -2.304112 2.882456
10.948693 -1.386834 3.931531
10.307334 27.695888 2.882456
10.948693 28.613166 3.931531
24.949742 14.009235 22.309366
25.513541 13.428783 20.841309
15.460637 8.679347 5.713149
16.064824 10.068651 5.567216
13.131707 1.932218 12.025691
13.415905 3.295232 11.035307
13.131707 31.932218 12.025691
13.415905 33.295232 11.035307
13.746960 8.660683 14.005550
12.700914 9.367949 14.890138
3.536700 15.173856 4.558741
4.374742 14.104514 5.332676
8.137949 18.225231 17.204541
8.129804 18.809940 18.577553
22.586210 5.219902 6.359178
22.716240 6.667454 6.916573
-2.654539 4.219218 -1.685573
-1.462108 5.047606 -1.992710
-2.654539 4.219218 28.314427
-1.462108 5.047606 28.007290
27.345461 4.219218 -1.685573
28.537892 5.047606 -1.992710
27.345461 4.219218 28.314427
28.537892 5.047606 28.007290
12.676638 10.251995 18.662668
11.754469 10.422114 19.950469
21.509135 12.542200 -0.598632
22.770843 13.181491 -0.126699
21.509135 12.542200 29.401368
22.770843 13.181491 29.873301
25.891974 7.934938 26.453970
25.522025 6.531056 25.975135
17.879822 25.352752 24.802474
17.821739 26.453259 23.841102
9.724894 21.937773 25.993753
11.104017 22.103216 26.566569
16.161715 4.508975 7.547118
16.951784 3.513698 8.479823
7.541714 22.861393 16.745833
6.190051 22.525170 16.152429
24.070139 -1.715488 6.893210
23.155771 -2.883560 6.241822
24.070139 28.284512 6.893210
23.155771 27.116440 6.241822
15.680132 -1.147924 14.100874
16.185424 -1.414630 12.657226
15.680132 28.852076 14.100874
16.185424 28.585370 12.657226
20.374884 8.215812 25.333863
19.345533 9.254895 24.807322
1.924757 7.389161 18.695820
0.662263 8.256128 18.913407
31.924757 7.389161 18.695820
30.662263 8.256128 18.913407
17.963810 1.039439 2.497174
16.468547 0.887474 2.217726
17.963810 1.039439 32.497174
16.468547 0.887474 32.217726
17.963810 31.039439 2.497174
16.468547 30.887474 2.217726
17.963810 31.039439 32.497174
16.468547 30.887474 32.217726
3.886026 6.014219 -2.776363
3.387787 5.273730 -1.516707
3.886026 6.014219 27.223637
3.387787 5.273730 28.483293
17.726555 4.764283 1.266940
17.881780 5.467329 2.576126
17.726555 4.764283 31.266940
17.881780 5.467329 32.576126
23.210477 9.598921 4.419908
23.629086 8.873845 3.077046
1.622911 15.148525 16.655376
0.922079 13.739934 16.681913
31.622911 15.148525 16.655376
30.922079 13.739934 16.681913
24.770596 10.820989 12.240986
25.560390 11.641907 11.215596
8.872457 22.309159 9.344307
9.008130 21.932185 10.829288
3.488139 8.588937 15.210474
5.003012 9.037313 15.390740
23.362695 22.179717 23.584658
22.640433 23.035913 24.500851
1.853275 18.425270 -0.240457
1.878254 17.925555 -1.630288
1.853275 18.425270 29.759543
1.878254 17.925555 28.369712
31.853275 18.425270 -0.240457
31.878254 17.925555 -1.630288
31.853275 18.425270 29.759543
31.878254 17.925555 28.369712
6.415502 11.854598 25.209322
6.566332 12.372583 26.600450
18.974428 16.905931 -0.529461
20.093581 17.208928 0.360720
18.974428 16.905931 29.470539
20.093581 17.208928 30.360720
21.550180 -2.222426 26.072567
22.393235 -1.159397 26.901682
21.550180 27.777574 26.072567
22.393235 28.840603 26.901682
12.598176 26.053045 18.263604
11.206695 25.776948 18.759485
13.638422 19.714408 3.990921
14.187375 20.787372 3.184892
2.596319 0.764249 5.011534
2.706309 0.831961 6.476031
2.596319 30.764249 5.011534
2.706309 30.831961 6.476031
32.596319 0.764249 5.011534
32.706309 0.831961 6.476031
32.596319 30.764249 5.011534
32.706309 30.831961 6.476031
1.826721 23.806307 3.456758
0.806122 23.682304 2.462926
1.826721 23.806307 33.456758
0.806122 23.682304 32.462926
31.826721 23.806307 3.456758
30.806122 23.682304 2.462926
31.826721 23.806307 33.456758
30.806122 23.682304 32.462926
-1.393717 4.420642 4.043622
-0.476270 3.174539 3.846625
28.606283 4.420642 4.043622
29.523730 3.174539 3.846625
5.741360 19.601135 12.638258
7.167678 19.119594 12.276467
17.630226 2.521208 14.513374
18.993317 2.739031 14.032739
17.630226 32.521208 14.513374
18.993317 32.739031 14.032739
10.767927 7.844770 7.023043
11.260492 8.928581 6.160134
15.664802 20.595743 -2.519410
17.107722 20.328105 -2.099380
15.664802 20.595743 27.480590
17.107722 20.328105 27.900620
3.422384 19.320028 16.898637
3.496335 18.549105 18.244065
-1.421851 22.413281 5.743850
-0.526649 21.433278 6.471071
28.578149 22.413281 5.743850
29.473351 21.433278 6.471071
15.794587 14.572248 4.423428
14.704432 15.669306 4.354463
20.556537 0.617914 6.335323
21.810027 1.464176 6.376646
20.556537 30.617914 6.335323
21.810027 31.464176 6.376646
15.856097 13.682203 0.699686
15.298897 14.222794 -0.560473
15.856097 13.682203 30.699686
15.298897 14.222794 29.439527
6.351146 6.227240 7.228652
7.180497 5.347989 8.278732
0.515652 1.717245 18.604775
-0.255427 1.730486 19.991344
0.515652 31.717245 18.604775
-0.255427 31.730486 19.991344
30.515652 1.717245 18.604775
29.744573 1.730486 19.991344
30.515652 31.717245 18.604775
29.744573 31.730486 19.991344
12.365102 -0.384362 8.846873
11.841382 0.497939 7.695738
12.365102 29.615638 8.846873
11.841382 30.497939 7.695738
15.259894 26.691819 8.896450
14.902123 25.203550 9.105935
2.515666 19.911695 8.067056
3.094469 19.708272 6.588543
32.515666 19.911695 8.067056
33.094469 19.708272 6.588543
14.103597 23.654280 25.490888
14.791790 24.850137 26.098992
5.011250 7.758738 23.307434
5.658979 6.518692 22.454192
7.112149 25.558037 3.982979
6.765363 24.358325 3.256658
-1.946692 25.991440 3.390962
-2.811417 27.018391 2.406073
-1.946692 25.991440 33.390962
-2.811417 27.018391 32.406073
28.053308 25.991440 3.390962
27.188583 27.018391 2.406073
28.053308 25.991440 33.390962
27.188583 27.018391 32.406073
11.200023 14.187139 -1.524844
10.625363 12.868888 -2.149946
11.200023 14.187139 28.475156
10.625363 12.868888 27.850054
24.658668 -1.346034 12.113960
23.627801 -2.388397 11.430524
24.658668 28.653966 12.113960
23.627801 27.611603 11.430524
3.391980 15.863554 25.087931
3.397996 14.342745 25.183854
-0.121353 23.992193 17.352066
-0.049989 25.386100 16.550916
29.878647 23.992193 17.352066
29.950011 25.386100 16.550916
2.584396 13.936518 8.575493
3.940492 14.511229 8.825649
25.916033 3.651260 14.548854
24.523097 3.670726 13.941618
17.293267 4.044774 18.725126
18.055005 2.748182 18.902725
16.211844 24.855992 14.797250
15.816603 23.944909 13.510825
11.936363 16.041009 18.996090
13.000915 16.936113 19.700914
6.249261 1.643261 22.751203
5.117980 0.860047 22.123063
6.249261 31.643261 22.751203
5.117980 30.860047 22.123063
13.275639 2.015329 -2.651369
14.076241 0.953831 -3.382915
13.275639 2.015329 27.348631
14.076241 0.953831 26.617085
13.275639 32.015329 -2.651369
14.076241 30.953831 -3.382915
13.275639 32.015329 27.348631
14.076241 30.953831 26.617085
10.977053 24.860563 23.852593
11.338704 24.492885 22.381719
6.238316 0.682943 16.814355
7.558453 0.436842 17.645893
6.238316 30.682943 16.814355
7.558453 30.436842 17.645893
-0.375239 24.191335 27.395197
0.447262 25.066885 26.497337
29.624761 24.191335 27.395197
30.447262 25.066885 26.497337
-0.313660 18.401521 24.022255
-1.238259 17.329465 24.408499
29.686340 18.401521 24.022255
28.761741 17.329465 24.408499
2.961037 26.559617 5.663871
3.966027 26.692652 6.917679
22.349536 22.762664 19.767588
23.350339 21.558822 19.496441
25.298441 24.759157 -2.347937
26.239571 25.922452 -2.255615
25.298441 24.759157 27.652063
26.239571 25.922452 27.744385
21.977902 13.407477 6.478675
21.874568 14.669124 5.728854
23.690353 -1.975448 0.549778
24.123008 -0.608779 0.218705
23.690353 -1.975448 30.549778
24.123008 -0.608779 30.218705
23.690353 28.024552 0.549778
24.123008 29.391221 0.218705
23.690353 28.024552 30.549778
24.123008 29.391221 30.218705
15.284158 3.105798 22.194305
15.222409 1.809186 23.040600
15.284158 33.105798 22.194305
15.222409 31.809186 23.040600
-1.016605 9.775472 0.194652
0.267116 9.242178 -0.430428
-1.016605 9.775472 30.194652
0.267116 9.242178 29.569572
28.983395 9.775472 0.194652
30.267116 9.242178 -0.430428
28.983395 9.775472 30.194652
30.267116 9.242178 29.569572
10.243554 6.853741 11.407303
10.375677 5.376988 11.089983
23.184646 7.861367 14.673338
22.825704 7.529814 16.162745
1.214507 7.382971 22.415618
1.271875 5.827635 22.779239
31.214507 7.382971 22.415618
31.271875 5.827635 22.779239
4.163395 14.942320 19.109694
5.259378 13.965536 18.764198
6.658006 12.606460 7.441062
6.209859 11.211887 7.754604
4.226789 4.145063 10.769432
4.011907 3.353412 9.478641
25.013301 17.725259 24.623201
24.985958 17.566397 23.097331
18.255495 23.273431 4.300667
19.252546 24.439447 4.475159
7.640490 9.775858 21.950463
7.050667 10.568580 20.721231
26.802322 20.263495 -3.146247
25.695109 20.708739 -2.209219
26.802322 20.263495 26.853753
25.695109 20.708739 27.790781
3.997635 26.723434 18.074201
4.360197 26.152758 19.368839
5.888139 -2.131727 12.839820
7.434331 -1.950008 12.611483
5.888139 27.868273 12.839820
7.434331 28.049992 12.611483
21.071522 1.901621 16.854877
22.184510 0.988258 16.527894
21.071522 31.901621 16.854877
22.184510 30.988258 16.527894
-2.429332 1.809659 10.340930
-2.833733 3.102095 9.398752
-2.429332 31.809659 10.340930
-2.833733 33.102095 9.398752
27.570668 1.809659 10.340930
27.166267 3.102095 9.398752
27.570668 31.809659 10.340930
27.166267 33.102095 9.398752
7.195847 16.368740 9.756283
6.471044 16.829114 8.424050
0.961062 6.463115 6.819242
1.715955 7.579205 5.986327
30.961062 6.463115 6.819242
31.715955 7.579205 5.986327
6.430786 24.502094 23.344183
5.996918 24.624947 24.779063
4.336026 8.372180 11.675701
3.567899 7.967639 10.324043
25.043571 1.856376 23.921011
25.600270 1.793177 25.367187
25.043571 31.856376 23.921011
25.600270 31.793177 25.367187
8.055863 27.477782 8.084423
8.466949 26.055347 7.505711
26.243001 24.811661 23.919289
27.560916 24.018554 23.781796
25.563925 1.769943 5.136015
24.636835 2.134401 3.881471
25.563925 31.769943 5.136015
24.636835 32.134401 3.881471
10.338727 21.772717 5.814565
8.873920 21.526944 5.753268
15.986271 10.360337 25.901141
15.326670 10.329538 24.512973
9.173031 7.436676 0.279060
10.089933 8.274928 1.230010
9.173031 7.436676 30.279060
10.089933 8.274928 31.230010
0.187331 3.664254 15.407092
-0.568420 4.217563 16.514236
30.187331 3.664254 15.407092
29.431580 4.217563 16.514236
12.548657 17.217652 25.887550
13.681566 16.122547 26.019349
19.105273 7.523222 6.086566
18.958519 8.754516 6.946291
11.971654 6.833565 -2.291134
12.433991 5.728142 -1.326799
11.971654 6.833565 27.708866
12.433991 5.728142 28.673201
12.388998 11.362578 2.328248
12.125985 12.852582 1.790531
12.388998 11.362578 32.328248
12.125985 12.852582 31.790531
14.469107 21.234597 9.321287
15.748595 21.367744 8.564010
15.575958 12.913187 12.978230
15.667654 14.496154 12.984945
-3.059312 6.821455 20.730990
-2.537198 5.454702 20.493889
26.940688 6.821455 20.730990
27.462802 5.454702 20.493889
12.216118 25.220396 5.763725
13.291799 24.926477 4.674913
4.934205 16.164133 13.370281
4.079970 15.169188 12.436808
10.944069 19.221118 12.214218
10.661653 18.943578 13.678915
19.422210 4.604669 27.302022
18.431394 5.141166 26.288831
19.664454 8.150340 0.765537
19.814767 8.047332 -0.741937
19.664454 8.150340 30.765537
19.814767 8.047332 29.258063
21.103655 16.198185 26.618063
21.415839 15.470183 25.214373
10.768289 25.710140 10.136407
11.265143 26.467103 11.415435
24.353518 10.230143 7.728727
25.340112 11.269634 7.127620
4.567243 18.726117 1.767075
4.793101 19.741197 2.964074
4.567243 18.726117 31.767075
4.793101 19.741197 32.964074
7.233406 12.404531 11.826987
5.981246 11.620468 11.530887
8.361999 14.953757 22.283639
7.315187 15.778187 21.561794
5.512201 21.981770 20.068201
6.614889 21.359106 21.003996
5.603099 -1.825259 25.009790
4.083732 -1.270775 25.368989
5.603099 28.174741 25.009790
4.083732 28.729225 25.368989
15.287479 21.097676 20.343861
14.154128 20.673393 19.469783
11.801762 0.019098 20.441456
13.138830 -0.576378 21.141142
11.801762 30.019098 20.441456
13.138830 29.423622 21.141142
23.654439 3.330355 20.765514
23.087941 4.228007 21.978381
-2.266835 14.087853 4.739556
-3.757381 13.959256 4.959527
27.733165 14.087853 4.739556
26.242619 13.959256 4.959527
7.906401 13.525988 15.954320
9.011770 12.568221 15.180266
LINES 247 741
2 0 1
2 2 3
2 4 5
2 6 7
2 8 9
2 10 11
2 12 13
2 14 15
2 16 17
2 18 19
2 20 21
2 22 23
2 24 25
2 26 27
2 28 29
2 30 31
2 32 33
2 34 35
2 36 37
2 38 39
2 40 41
2 42 43
2 44 45
2 46 47
2 48 49
2 50 51
2 52 53
2 54 55
2 56 57
2 58 59
2 60 61
2 62 63
2 64 65
2 66 67
2 68 69
2 70 71
2 72 73
2 74 75
2 76 77
2 78 79
2 80 81
2 82 83
2 84 85
2 86 87
2 88 89
2 90 91
2 92 93
2 94 95
2 96 97
2 98 99
2 100 101
2 102 103
2 104 105
2 106 107
2 108 109
2 110 111
2 112 113
2 114 115
2 116 117
2 118 119
2 120 121
2 122 123
2 124 125
2 126 127
2 128 129
2 130 131
2 132 133
2 134 135
2 136 137
2 138 139
2 140 141
2 142 143
2 144 145
2 146 147
2 148 149
2 150 151
2 152 153
2 154 155
2 156 157
2 158 159
2 160 161
2 162 163
2 164 165
2 166 167
2 168 169
2 170 171
2 172 173
2 174 175
2 176 177
2 178 179
2 180 181
2 182 183
2 184 185
2 186 187
2 188 189
2 190 191
2 192 193
2 194 195
2 196 197
2 198 199
2 200 201
2 202 203
2 204 205
2 206 207
2 208 209
2 210 211
2 212 213
2 214 215
2 216 217
2 218 219
2 220 221
2 222 223
2 224 225
2 226 227
2 228 229
2 230 231
2 232 233
2 234 235
2 236 237
2 238 239
2 240 241
2 242 243
2 244 245
2 246 247
2 248 249
2 250 251
2 252 253
2 254 255
2 256 257
2 258 259
2 260 261
2 262 263
2 264 265
2 266 267
2 268 269
2 270 271
2 272 273
2 274 275
2 276 277
2 278 279
2 280 281
2 282 283
2 284 285
2 286 287
2 288 289
2 290 291
2 292 293
2 294 295
2 296 297
2 298 299
2 300 301
2 302 303
2 304 305
2 306 307
2 308 309
2 310 311
2 312 313
2 314 315
2 316 317
2 318 319
2 320 321
2 322 323
2 324 325
2 326 327
2 328 329
2 330 331
2 332 333
2 334 335
2 336 337
2 338 339
2 340 341
2 342 343
2 344 345
2 346 347
2 348 349
2 350 351
2 352 353
2 354 355
2 356 357
2 358 359
2 360 361
2 362 363
2 364 365
2 366 367
2 368 369
2 370 371
2 372 373
2 374 375
2 376 377
2 378 379
2 380 381
2 382 383
2 384 385
2 386 387
2 388 389
2 390 391
2 392 393
2 394 395
2 396 397
2 398 399
2 400 401
2 402 403
2 404 405
2 406 407
2 408 409
2 410 411
2 412 413
2 414 415
2 416 417
2 418 419
2 420 421
2 422 423
2 424 425
2 426 427
2 428 429
2 430 431
2 432 433
2 434 435
2 436 437
2 438 439
2 440 441
2 442 443
2 444 445
2 446 447
2 448 449
2 450 451
2 452 453
2 454 455
2 456 457
2 458 459
2 460 461
2 462 463
2 464 465
2 466 467
2 468 469
2 470 471
2 472 473
2 474 475
2 476 477
2 478 479
2 480 481
2 482 483
2 484 485
2 486 487
2 488 489
2 490 491
2 492 493
POINT_DATA 494
SCALARS my_scalars float
LOOKUP_TABLE default
1.7
1.7
1.7
1.7
1.7
1.7
1.7
1.7
1.7
1.7
1.7
1.7
1.7
1.7
1.7
1.7
1.7
1.7
1.7
1.7
1.7
1.7
1.7
1.7
1.7
1.7
1.7
1.7
1.7
1.7
1.7
1.7
1.7
1.7
1.7
1.7
1.7
1.7
1.7
1.7
1.7
1.7
1.7
1.7
1.7
1.7
1.7
1.7
1.7
1.7
1.7
1.7
1.7
1.7
1.7
1.7
1.7
1.7
1.7
1.7
1.7
1.7
1.7
1.7
1.7
1.7
1.7
1.7
1.7
1.7
1.7
1.7
1.7
1.7
1.7
1.7
1.7
1.7
1.7
1.7
1.7
1.7
1.7
1.7
1.7
1.7
1.7
1.7
1.7
1.7
1.7
1.7
1.7
1.7
1.7
1.7
1.7
1.7
1.7
1.7
1.7
1.7
1.7
1.7
1.7
1.7
1.7
1.7
1.7
1.7
1.7
1.7
1.7
1.7
1.7
1.7
1.7
1.7
1.7
1.7
1.7
1.7
1.7
1.7
1.7
1.7
1.7
1.7
1.7
1.7
1.7
1.7
1.7
1.7
1.7
1.7
1.7
1.7
1.7
1.7
1.7
1.7
1.7
1.7
1.7
1.7
1.7
1.7
1.7
1.7
1.7
1.7
1.7
1.7
1.7
1.7
1.7
1.7
1.7
1.7
1.7
1.7
1.7
1.7
1.7
1.7
1.7
1.7
1.7
1.7
1.7
1.7
1.7
1.7
1.7
1.7
1.7
1.7
1.7
1.7
1.7
1.7
1.7
1.7
1.7
1.7
1.7
1.7
1.7
1.7
1.7
1.7
1.7
1.7
1.7
1.7
1.7
1.7
1.7
1.7
1.7
1.7
1.7
1.7
1.7
1.7
1.7
1.7
1.7
1.7
1.7
1.7
1.7
1.7
1.7
1.7
1.7
1.7
1.7
1.7
1.7
1.7
1.7
1.7
1.7
1.7
1.7
1.7
1.7
1.7
1.7
1.7
1.7
1.7
1.7
1.7
1.7
1.7
1.7
1.7
1.7
1.7
1.7
1.7
1.7
1.7
1.7
1.7
1.7
1.7
1.7
1.7
1.7
1.7
1.7
1.7
1.7
1.7
1.7
1.7
1.7
1.7
1.7
1.7
1.7
1.7
1.7
1.7
1.7
1.7
1.7
1.7
1.7
1.7
1.7
1.7
1.7
1.7
1.7
1.7
1.7
1.7
1.7
1.7
1.7
1.7
1.7
1.7
1.7
1.7
1.7
1.7
1.7
1.7
1.7
1.7
1.7
1.7
1.7
1.7
1.7
1.7
1.7
1.7
1.7
1.7
1.7
1.7
1.7
1.7
1.7
1.7
1.7
1.7
1.7
1.7
1.7
1.7
1.7
1.7
1.7
1.7
1.7
1.7
1.7
1.7
1.7
1.7
1.7
1.7
1.7
1.7
1.7
1.7
1.7
1.7
1.7
1.7
1.7
1.7
1.7
1.7
1.7
1.7
1.7
1.7
1.7
1.7
1.7
1.7
1.7
1.7
1.7
1.7
1.7
1.7
1.7
1.7
1.7
1.7
1.7
1.7
1.7
1.7
1.7
1.7
1.7
1.7
1.7
1.7
1.7
1.7
1.7
1.7
1.7
1.7
1.7
1.7
1.7
1.7
1.7
1.7
1.7
1.7
1.7
1.7
1.7
1.7
1.7
1.7
1.7
1.7
1.7
1.7
1.7
1.7
1.7
1.7
1.7
1.7
1.7
1.7
1.7
1.7
1.7
1.7
1.7
1.7
1.7
1.7
1.7
1.7
1.7
1.7
1.7
1.7
1.7
1.7
1.7
1.7
1.7
1.7
1.7
1.7
1.7
1.7
1.7
1.7
1.7
1.7
1.7
1.7
1.7
1.7
1.7
1.7
1.7
1.7
1.7
1.7
1.7
1.7
1.7
1.7
1.7
1.7
1.7
1.7
1.7
1.7
1.7
1.7
1.7
1.7
1.7
1.7
1.7
1.7
1.7
1.7
1.7
1.7
1.7
1.7
1.7
1.7
1.7
1.7
1.7
1.7
1.7
1.7
1.7
1.7
1.7
1.7
1.7
1.7
1.7
1.7
1.7
1.7
1.7
1.7
1.7
1.7
1.7
1.7
1.7
1.7
1.7
1.7
1.7
1.7
VECTORS vectors float
0.3125 0 0
0.3125 0 0
0.3125 0 0
0.3125 0 0
0.3125 0 0
0.3125 0 0
0.3125 0 0
0.3125 0 0
0.3125 0 0
0.3125 0 0
0.3125 0 0
0.3125 0 0
0.3125 0 0
0.3125 0 0
0.3125 0 0
0.3125 0 0
0.3125 0 0
0.3125 0 0
0.3125 0 0
0.3125 0 0
0.3125 0 0
0.3125 0 0
0.3125 0 0
0.3125 0 0
0.3125 0 0
0.3125 0 0
0.3125 0 0
0.3125 0 0
0.3125 0 0
0.3125 0 0
0.3125 0 0
0.3125 0 0
0.3125 0 0
0.3125 0 0
0.3125 0 0
0.3125 0 0
0.3125 0 0
0.3125 0 0
0.3125 0 0
0.3125 0 0
0.3125 0 0
0.3125 0 0
0.3125 0 0
0.3125 0 0
0.3125 0 0
0.3125 0 0
0.3125 0 0
0.3125 0 0
0.3125 0 0
0.3125 0 0
0.3125 0 0
0.3125 0 0
0.3125 0 0
0.3125 0 0
0.3125 0 0
0.3125 0 0
0.3125 0 0
0.3125 0 0
0.3125 0 0
0.3125 0 0
0.3125 0 0
0.3125 0 0
0.3125 0 0
0.3125 0 0
0.3125 0 0
0.3125 0 0
0.3125 0 0
0.3125 0 0
0.3125 0 0
0.3125 0 0
0.3125 0 0
0.3125 0 0
0.3125 0 0
0.3125 0 0
0.3125 0 0
0.3125 0 0
0.3125 0 0
0.3125 0 0
0.3125 0 0
0.3125 0 0
0.3125 0 0
0.3125 0 0
0.3125 0 0
0.3125 0 0
0.3125 0 0
0.3125 0 0
0.3125 0 0
0.3125 0 0
0.3125 0 0
0.3125 0 0
0.3125 0 0
0.3125 0 0
0.3125 0 0
0.3125 0 0
0.3125 0 0
0.3125 0 0
0.3125 0 0
0.3125 0 0
0.3125 0 0
0.3125 0 0
0.3125 0 0
0.3125 0 0
0.3125 0 0
0.3125 0 0
0.3125 0 0
0.3125 0 0
0.3125 0 0
0.3125 0 0
0.3125 0 0
0.3125 0 0
0.3125 0 0
0.3125 0 0
0.3125 0 0
0.3125 0 0
0.3125 0 0
0.3125 0 0
0.3125 0 0
0.3125 0 0
0.3125 0 0
0.3125 0 0
0.3125 0 0
0.3125 0 0
0.3125 0 0
0.3125 0 0
0.3125 0 0
0.3125 0 0
0.3125 0 0
0.3125 0 0
0.3125 0 0
0.3125 0 0
0.3125 0 0
0.3125 0 0
0.3125 0 0
0.3125 0 0
0.3125 0 0
0.3125 0 0
0.3125 0 0
0.3125 0 0
0.3125 0 0
0.3125 0 0
0.3125 0 0
0.3125 0 0
0.3125 0 0
0.3125 0 0
0.3125 0 0
0.3125 0 0
0.3125 0 0
0.3125 0 0
0.3125 0 0
0.3125 0 0
0.3125 0 0
0.3125 0 0
0.3125 0 0
0.3125 0 0
0.3125 0 0
0.3125 0 0
0.3125 0 0
0.3125 0 0
0.3125 0 0
0.3125 0 0
0.3125 0 0
0.3125 0 0
0.3125 0 0
0.3125 0 0
0.3125 0 0
0.3125 0 0
0.3125 0 0
0.3125 0 0
0.3125 0 0
0.3125 0 0
0.3125 0 0
0.3125 0 0
0.3125 0 0
0.3125 0 0
0.3125 0 0
0.3125 0 0
0.3125 0 0
0.3125 0 0
0.3125 0 0
0.3125 0 0
0.3125 0 0
0.3125 0 0
0.3125 0 0
0.3125 0 0
0.3125 0 0
0.3125 0 0
0.3125 0 0
0.3125 0 0
0.3125 0 0
0.3125 0 0
0.3125 0 0
0.3125 0 0
0.3125 0 0
0.3125 0 0
0.3125 0 0
0.3125 0 0
0.3125 0 0
0.3125 0 0
0.3125 0 0
0.3125 0 0
0.3125 0 0
0.3125 0 0
0.3125 0 0
0.3125 0 0
0.3125 0 0
0.3125 0 0
0.3125 0 0
0.3125 0 0
0.3125 0 0
0.3125 0 0
0.3125 0 0
0.3125 0 0
0.3125 0 0
0.3125 0 0
0.3125 0 0
0.3125 0 0
0.3125 0 0
0.3125 0 0
0.3125 0 0
0.3125 0 0
0.3125 0 0
0.3125 0 0
0.3125 0 0
0.3125 0 0
0.3125 0 0
0.3125 0 0
0.3125 0 0
0.3125 0 0
0.3125 0 0
0.3125 0 0
0.3125 0 0
0.3125 0 0
0.3125 0 0
0.3125 0 0
0.3125 0 0
0.3125 0 0
0.3125 0 0
0.3125 0 0
0.3125 0 0
0.3125 0 0
0.3125 0 0
0.3125 0 0
0.3125 0 0
0.3125 0 0
0.3125 0 0
0.3125 0 0
0.3125 0 0
0.3125 0 0
0.3125 0 0
0.3125 0 0
0.3125 0 0
0.3125 0 0
0.3125 0 0
0.3125 0 0
0.3125 0 0
0.3125 0 0
0.3125 0 0
0.3125 0 0
0.3125 0 0
0.3125 0 0
0.3125 0 0
0.3125 0 0
0.3125 0 0
0.3125 0 0
0.3125 0 0
0.3125 0 0
0.3125 0 0
0.3125 0 0
0.3125 0 0
0.3125 0 0
0.3125 0 0
0.3125 0 0
0.3125 0 0
0.3125 0 0
0.3125 0 0
0.3125 0 0
0.3125 0 0
0.3125 0 0
0.3125 0 0
0.3125 0 0
0.3125 0 0
0.3125 0 0
0.3125 0 0
0.3125 0 0
0.3125 0 0
0.3125 0 0
0.3125 0 0
0.3125 0 0
0.3125 0 0
0.3125 0 0
0.3125 0 0
0.3125 0 0
0.3125 0 0
0.3125 0 0
0.3125 0 0
0.3125 0 0
0.3125 0 0
0.3125 0 0
0.3125 0 0
0.3125 0 0
0.3125 0 0
0.3125 0 0
0.3125 0 0
0.3125 0 0
0.3125 0 0
0.3125 0 0
0.3125 0 0
0.3125 0 0
0.3125 0 0
0.3125 0 0
0.3125 0 0
0.3125 0 0
0.3125 0 0
0.3125 0 0
0.3125 0 0
0.3125 0 0
0.3125 0 0
0.3125 0 0
0.3125 0 0
0.3125 0 0
0.3125 0 0
0.3125 0 0
0.3125 0 0
0.3125 0 0
0.3125 0 0
0.3125 0 0
0.3125 0 0
0.3125 0 0
0.3125 0 0
0.3125 0 0
0.3125 0 0
0.3125 0 0
0.3125 0 0
0.3125 0 0
0.3125 0 0
0.3125 0 0
0.3125 0 0
0.3125 0 0
0.3125 0 0
0.3125 0 0
0.3125 0 0
0.3125 0 0
0.3125 0 0
0.3125 0 0
0.3125 0 0
0.3125 0 0
0.3125 0 0
0.3125 0 0
0.3125 0 0
0.3125 0 0
0.3125 0 0
0.3125 0 0
0.3125 0 0
0.3125 0 0
0.3125 0 0
0.3125 0 0
0.3125 0 0
0.3125 0 0
0.3125 0 0
0.3125 0 0
0.3125 0 0
0.3125 0 0
0.3125 0 0
0.3125 0 0
0.3125 0 0
0.3125 0 0
0.3125 0 0
0.3125 0 0
0.3125 0 0
0.3125 0 0
0.3125 0 0
0.3125 0 0
0.3125 0 0
0.3125 0 0
0.3125 0 0
0.3125 0 0
0.3125 0 0
0.3125 0 0
0.3125 0 0
0.3125 0 0
0.3125 0 0
0.3125 0 0
0.3125 0 0
0.3125 0 0
0.3125 0 0
0.3125 0 0
0.3125 0 0
0.3125 0 0
0.3125 0 0
0.3125 0 0
0.3125 0 0
0.3125 0 0
0.3125 0 0
0.3125 0 0
0.3125 0 0
0.3125 0 0
0.3125 0 0
0.3125 0 0
0.3125 0 0
0.3125 0 0
0.3125 0 0
0.3125 0 0
0.3125 0 0
0.3125 0 0
0.3125 0 0
0.3125 0 0
0.3125 0 0
0.3125 0 0
0.3125 0 0
0.3125 0 0
0.3125 0 0
0.3125 0 0
0.3125 0 0
0.3125 0 0
0.3125 0 0
0.3125 0 0
0.3125 0 0
0.3125 0 0
0.3125 0 0
0.3125 0 0
0.3125 0 0
0.3125 0 0
0.3125 0 0
0.3125 0 0
0.3125 0 0
0.3125 0 0
0.3125 0 0
0.3125 0 0
0.3125 0 0
0.3125 0 0
0.3125 0 0
0.3125 0 0
0.3125 0 0
0.3125 0 0
0.3125 0 0
0.3125 0 0
0.3125 0 0
0.3125 0 0
0.3125 0 0
0.3125 0 0
0.3125 0 0
0.3125 0 0
0.3125 0 0
0.3125 0 0
0.3125 0 0
0.3125 0 0
0.3125 0 0
0.3125 0 0
0.3125 0 0
0.3125 0 0
0.3125 0 0
0.3125 0 0
0.3125 0 0
0.3125 0 0
0.3125 0 0
0.3125 0 0
0.3125 0 0
0.3125 0 0
0.3125 0 0
0.3125 0 0
0.3125 0 0
0.3125 0 0
0.3125 0 0
0.3125 0 0
0.3125 0 0
0.3125 0 0
0.3125 0 0
0.3125 0 0
0.3125 0 0
0.3125 0 0
0.3125 0 0
0.3125 0 0
0.3125 0 0
0.3125 0 0
0.3125 0 0
0.3125 0 0
0.3125 0 0
0.3125 0 0
0.3125 0 0
0.3125 0 0
0.3125 0 0
0.3125 0 0
0.3125 0 0
0.3125 0 0
0.3125 0 0
0.3125 0 0
0.3125 0 0
0.3125 0 0
0.3125 0 0
0.3125 0 0
0.3125 0 0
0.3125 0 0
0.3125 0 0
0.3125 0 0
