# vtk DataFile Version 1.0
Cube
ASCII

DATASET POLYDATA
POINTS 372 float
6.458367 9.272512 0.598781
6.268365 7.941254 1.410425
6.458367 9.272512 30.598781
6.268365 7.941254 31.410425
22.238848 3.534849 3.702819
21.488072 4.129997 2.555425
4.274751 6.882912 9.198234
4.654799 5.349675 9.144969
11.549232 9.776687 4.297169
12.765984 10.322185 3.498766
14.694701 -2.939376 25.629901
14.669379 -1.396683 25.912258
14.694701 27.060624 25.629901
14.669379 28.603317 25.912258
2.817565 6.643177 2.665361
2.773667 8.135305 2.484863
2.817565 6.643177 32.665361
2.773667 8.135305 32.484863
32.817565 6.643177 2.665361
32.773667 8.135305 2.484863
32.817565 6.643177 32.665361
32.773667 8.135305 32.484863
23.510137 8.607863 8.540039
24.821874 9.688641 8.815832
11.483597 -1.537211 6.166591
12.859654 -1.665287 6.911175
11.483597 28.462789 6.166591
12.859654 28.334713 6.911175
9.639129 6.247704 -1.457379
10.732535 6.916488 -0.514596
9.639129 6.247704 28.542621
10.732535 6.916488 29.485404
25.680624 18.531331 -1.334806
26.814233 19.519445 -0.641613
25.680624 18.531331 28.665194
26.814233 19.519445 29.358387
11.531617 1.914929 20.509317
12.863347 2.241060 19.868993
11.531617 31.914929 20.509317
12.863347 32.241060 19.868993
13.543018 16.882258 14.443302
13.758489 15.397368 13.852292
17.429616 17.944519 1.164211
17.116122 18.058296 2.746525
17.429616 17.944519 31.164211
17.116122 18.058296 32.746525
18.723668 6.333774 7.618499
19.348453 7.630915 7.124262
11.970749 12.149213 22.682952
11.674786 12.185470 21.143150
26.243242 1.328635 1.099114
25.069716 1.780490 0.267528
26.243242 1.328635 31.099114
25.069716 1.780490 30.267528
26.243242 31.328635 1.099114
25.069716 31.780490 0.267528
26.243242 31.328635 31.099114
25.069716 31.780490 30.267528
20.347732 18.282006 25.430345
21.429096 19.059752 24.745125
24.956322 2.667350 8.157024
26.270295 3.124821 7.364597
24.956322 32.667350 8.157024
26.270295 33.124821 7.364597
16.191972 12.147384 5.906178
16.224895 12.153966 4.342484
26.068728 21.152347 20.764764
27.468392 21.668142 20.306485
9.846100 11.308935 12.442622
9.110659 10.446261 11.377179
9.574265 4.744745 18.770565
10.336145 6.007267 18.438756
8.161914 9.816733 19.799274
8.328662 9.393550 21.300718
5.701452 10.969317 4.376677
7.077437 11.381749 3.732831
-1.529594 10.729061 1.881284
-1.030939 12.044969 1.328109
-1.529594 10.729061 31.881284
-1.030939 12.044969 31.328109
28.470406 10.729061 1.881284
28.969061 12.044969 1.328109
28.470406 10.729061 31.881284
28.969061 12.044969 31.328109
18.216979 22.817776 0.767629
17.612735 22.570249 -0.661588
18.216979 22.817776 30.767629
17.612735 22.570249 29.338412
17.514725 4.905029 2.484900
17.887019 6.224733 2.945957
17.514725 4.905029 32.484900
17.887019 6.224733 32.945957
4.632916 8.335701 13.764306
5.556799 8.021391 12.499615
4.134556 11.897599 11.935548
2.755602 11.486399 12.577977
4.953230 14.534865 14.742702
3.873742 15.426220 13.972212
9.896450 17.757456 5.057239
8.812421 17.764483 4.086646
23.147273 17.836967 4.083719
21.975140 17.388166 3.028517
20.752837 4.351465 20.209552
19.867070 3.371133 20.943247
13.498570 1.796562 -0.247125
13.942485 1.744371 -1.766931
13.498570 1.796562 29.752875
13.942485 1.744371 28.233069
13.498570 31.796562 -0.247125
13.942485 31.744371 -1.766931
13.498570 31.796562 29.752875
13.942485 31.744371 28.233069
24.119446 15.062122 -2.246584
23.074543 14.492672 -3.059530
24.119446 15.062122 27.753416
23.074543 14.492672 26.940470
12.008955 -0.611808 16.029750
11.901029 -1.831743 16.945845
12.008955 29.388192 16.029750
11.901029 28.168257 16.945845
5.495039 2.619054 26.353049
6.268205 1.902689 27.504185
5.495039 32.619054 26.353049
6.268205 31.902689 27.504185
-2.035244 24.611012 26.118546
-2.950910 24.178133 27.257851
27.964756 24.611012 26.118546
27.049090 24.178133 27.257851
12.047694 7.423308 21.288113
12.684724 8.631773 22.090211
-2.134218 -2.480299 2.638837
-2.900469 -3.487350 3.449740
-2.134218 27.519701 2.638837
-2.900469 26.512650 3.449740
27.865782 -2.480299 2.638837
27.099531 -3.487350 3.449740
27.865782 27.519701 2.638837
27.099531 26.512650 3.449740
1.606781 16.924615 24.741692
1.348013 15.761802 25.675995
31.606781 16.924615 24.741692
31.348013 15.761802 25.675995
16.592363 13.084999 25.748775
15.896891 13.819934 26.909146
13.407772 9.952978 27.536720
13.944701 9.176421 26.357192
11.899546 25.459298 10.650513
12.101471 24.287846 9.555850
5.354330 20.601316 11.950395
6.476738 20.206615 13.001864
19.082739 12.149027 0.519012
20.162032 13.136308 0.507433
19.082739 12.149027 30.519012
20.162032 13.136308 30.507433
2.562860 -0.352916 5.028422
4.051674 -0.523103 4.924503
2.562860 29.647084 5.028422
4.051674 29.476897 4.924503
-1.984026 25.365157 11.363140
-2.647842 24.626230 10.186598
28.015974 25.365157 11.363140
27.352158 24.626230 10.186598
24.205704 22.209887 26.161962
22.766344 22.658681 26.238451
18.666054 13.688909 20.736872
19.580149 12.568047 20.225166
18.979582 6.931779 16.541536
17.982440 6.839310 15.317298
16.676734 10.806746 22.400669
16.722648 9.379509 22.765095
14.500042 15.188931 2.668978
14.669155 14.470486 1.268866
14.500042 15.188931 32.668978
14.669155 14.470486 31.268866
11.902270 14.418278 7.007343
12.505428 13.163443 6.362927
25.727678 18.052782 12.900101
26.926809 18.741716 12.340301
-2.482462 25.922426 17.207960
-3.178853 27.395164 17.090779
27.517538 25.922426 17.207960
26.821147 27.395164 17.090779
1.312081 8.219511 -1.897521
2.903043 7.887672 -2.062913
1.312081 8.219511 28.102479
2.903043 7.887672 27.937087
31.312081 8.219511 -1.897521
32.903043 7.887672 -2.062913
31.312081 8.219511 28.102479
32.903043 7.887672 27.937087
16.744754 -0.372439 20.451421
17.213853 1.075236 19.870422
16.744754 29.627561 20.451421
17.213853 31.075236 19.870422
1.032498 26.660456 24.403987
2.358133 26.579334 23.541716
31.032498 26.660456 24.403987
32.358133 26.579334 23.541716
8.593376 15.927854 13.370357
9.702442 16.671896 12.563334
24.261323 23.983737 6.490817
23.142468 22.880290 6.050285
26.514173 16.748064 8.939250
26.108562 15.252033 9.048587
7.101063 11.693385 14.676165
8.363696 12.179340 15.626290
16.610599 15.806527 18.964194
15.621286 16.446793 18.170618
6.080761 17.068921 19.907653
7.148464 15.835821 19.655689
24.693040 15.247295 19.705278
23.426010 15.863242 20.252725
21.155827 25.410692 22.401410
22.014776 24.102575 22.413384
23.848885 9.357774 2.502899
23.926746 8.012379 3.586269
4.501952 4.685428 12.696518
3.311890 4.702795 13.660329
20.917672 19.481307 0.106970
21.949982 18.904633 -0.827161
20.917672 19.481307 30.106970
21.949982 18.904633 29.172839
7.771573 25.673658 15.283433
8.810089 24.588098 14.726902
12.813573 19.410876 2.737257
11.402927 19.873457 2.239461
12.813573 19.410876 32.737257
11.402927 19.873457 32.239461
14.145030 22.142924 27.247608
14.646868 22.177920 25.896028
-0.986813 -1.136384 -2.261329
-1.232445 -2.474663 -1.520788
-0.986813 -1.136384 27.738671
-1.232445 -2.474663 28.479212
-0.986813 28.863616 -2.261329
-1.232445 27.525337 -1.520788
-0.986813 28.863616 27.738671
-1.232445 27.525337 28.479212
29.013187 -1.136384 -2.261329
28.767555 -2.474663 -1.520788
29.013187 -1.136384 27.738671
28.767555 -2.474663 28.479212
29.013187 28.863616 -2.261329
28.767555 27.525337 -1.520788
29.013187 28.863616 27.738671
28.767555 27.525337 28.479212
16.458031 18.091847 12.726951
16.698511 17.789657 11.282521
0.966265 6.693336 16.845658
1.428339 6.884361 18.312962
30.966265 6.693336 16.845658
31.428339 6.884361 18.312962
16.352002 -2.316536 11.838907
16.220113 -2.103449 10.281619
16.352002 27.683464 11.838907
16.220113 27.896551 10.281619
16.076989 6.871465 19.627792
15.522933 5.698960 20.517574
22.606974 -0.766408 24.609020
23.581927 0.063164 23.763709
22.606974 29.233592 24.609020
23.581927 30.063164 23.763709
-1.284015 4.425514 1.433428
-0.066140 3.425129 0.902154
-1.284015 4.425514 31.433428
-0.066140 3.425129 30.902154
28.715985 4.425514 1.433428
29.933860 3.425129 0.902154
28.715985 4.425514 31.433428
29.933860 3.425129 30.902154
5.046819 18.685160 24.389202
6.183942 19.155656 23.426096
24.715410 -2.021121 19.777594
23.430064 -1.529677 19.106245
24.715410 27.978879 19.777594
23.430064 28.470323 19.106245
16.978138 7.095076 -0.303486
18.144505 7.553241 -1.289632
16.978138 7.095076 29.696514
18.144505 7.553241 28.710368
24.437023 -2.377693 6.493712
25.322266 -1.723417 7.511089
24.437023 27.622307 6.493712
25.322266 28.276583 7.511089
-1.150066 10.445466 11.255344
-1.265284 10.523828 9.787643
28.849934 10.445466 11.255344
28.734716 10.523828 9.787643
15.268169 8.920269 14.519435
14.104449 9.962244 15.026494
9.110565 4.149865 4.722740
8.368834 3.256618 3.705520
8.859420 15.921258 25.521522
7.536860 16.555266 26.200494
13.646814 27.523100 -0.823986
12.733140 26.364296 -0.925157
13.646814 27.523100 29.176014
12.733140 26.364296 29.074843
20.917140 13.994392 10.656355
20.915702 15.148127 9.653659
7.285932 22.419832 4.049525
7.241761 22.024439 2.572398
11.452639 1.977230 13.270118
10.999111 3.280494 14.099204
11.452639 31.977230 13.270118
10.999111 33.280494 14.099204
0.640539 25.626424 5.984856
-0.585881 26.328288 6.635169
30.640539 25.626424 5.984856
29.414119 26.328288 6.635169
10.065585 -0.662017 -0.841977
10.695373 -0.228005 -2.164763
10.065585 -0.662017 29.158023
10.695373 -0.228005 27.835237
10.065585 29.337983 -0.841977
10.695373 29.771995 -2.164763
10.065585 29.337983 29.158023
10.695373 29.771995 27.835237
27.281540 7.653199 13.157478
26.121533 6.983046 12.457798
15.645183 11.160721 10.396772
16.771165 12.134844 9.989718
13.859275 17.609404 24.296921
15.174995 16.828915 24.374711
5.109225 12.944529 0.014765
5.204766 14.410421 0.298989
5.109225 12.944529 30.014765
5.204766 14.410421 30.298989
6.713709 -2.471870 19.052105
8.113912 -1.903526 18.821741
6.713709 27.528130 19.052105
8.113912 28.096474 18.821741
14.927701 16.723884 6.224334
16.387575 16.204633 6.344540
4.997888 0.094521 22.204303
6.262450 0.831327 21.492640
4.997888 30.094521 22.204303
6.262450 30.831327 21.492640
4.387379 -1.594915 26.339309
5.123740 -2.696385 27.006506
4.387379 28.405085 26.339309
5.123740 27.303615 27.006506
10.905351 25.896696 2.196748
11.344303 24.962047 3.259293
10.905351 25.896696 32.196748
11.344303 24.962047 33.259293
16.838339 1.285535 8.020959
16.275011 1.274708 9.467253
16.838339 31.285535 8.020959
16.275011 31.274708 9.467253
-0.638089 26.700401 20.654607
-2.185999 26.549869 20.941653
29.361911 26.700401 20.654607
27.814001 26.549869 20.941653
26.946566 10.695923 25.520485
26.153369 11.425433 26.634185
13.922251 7.081959 5.464007
13.621987 5.596768 5.441623
1.060415 25.186896 0.080629
1.397025 24.992903 1.595025
1.060415 25.186896 30.080629
1.397025 24.992903 31.595025
31.060415 25.186896 0.080629
31.397025 24.992903 1.595025
31.060415 25.186896 30.080629
31.397025 24.992903 31.595025
19.581900 15.127810 -2.722534
18.891556 15.889273 -1.539927
19.581900 15.127810 27.277466
18.891556 15.889273 28.460073
5.219369 23.733021 21.598932
4.642431 23.013503 22.744367
LINES 186 558
2 0 1
2 2 3
2 4 5
2 6 7
2 8 9
2 10 11
2 12 13
2 14 15
2 16 17
2 18 19
2 20 21
2 22 23
2 24 25
2 26 27
2 28 29
2 30 31
2 32 33
2 34 35
2 36 37
2 38 39
2 40 41
2 42 43
2 44 45
2 46 47
2 48 49
2 50 51
2 52 53
2 54 55
2 56 57
2 58 59
2 60 61
2 62 63
2 64 65
2 66 67
2 68 69
2 70 71
2 72 73
2 74 75
2 76 77
2 78 79
2 80 81
2 82 83
2 84 85
2 86 87
2 88 89
2 90 91
2 92 93
2 94 95
2 96 97
2 98 99
2 100 101
2 102 103
2 104 105
2 106 107
2 108 109
2 110 111
2 112 113
2 114 115
2 116 117
2 118 119
2 120 121
2 122 123
2 124 125
2 126 127
2 128 129
2 130 131
2 132 133
2 134 135
2 136 137
2 138 139
2 140 141
2 142 143
2 144 145
2 146 147
2 148 149
2 150 151
2 152 153
2 154 155
2 156 157
2 158 159
2 160 161
2 162 163
2 164 165
2 166 167
2 168 169
2 170 171
2 172 173
2 174 175
2 176 177
2 178 179
2 180 181
2 182 183
2 184 185
2 186 187
2 188 189
2 190 191
2 192 193
2 194 195
2 196 197
2 198 199
2 200 201
2 202 203
2 204 205
2 206 207
2 208 209
2 210 211
2 212 213
2 214 215
2 216 217
2 218 219
2 220 221
2 222 223
2 224 225
2 226 227
2 228 229
2 230 231
2 232 233
2 234 235
2 236 237
2 238 239
2 240 241
2 242 243
2 244 245
2 246 247
2 248 249
2 250 251
2 252 253
2 254 255
2 256 257
2 258 259
2 260 261
2 262 263
2 264 265
2 266 267
2 268 269
2 270 271
2 272 273
2 274 275
2 276 277
2 278 279
2 280 281
2 282 283
2 284 285
2 286 287
2 288 289
2 290 291
2 292 293
2 294 295
2 296 297
2 298 299
2 300 301
2 302 303
2 304 305
2 306 307
2 308 309
2 310 311
2 312 313
2 314 315
2 316 317
2 318 319
2 320 321
2 322 323
2 324 325
2 326 327
2 328 329
2 330 331
2 332 333
2 334 335
2 336 337
2 338 339
2 340 341
2 342 343
2 344 345
2 346 347
2 348 349
2 350 351
2 352 353
2 354 355
2 356 357
2 358 359
2 360 361
2 362 363
2 364 365
2 366 367
2 368 369
2 370 371
POINT_DATA 372
SCALARS my_scalars float
LOOKUP_TABLE default
1.7
1.7
1.7
1.7
1.7
1.7
1.7
1.7
1.7
1.7
1.7
1.7
1.7
1.7
1.7
1.7
1.7
1.7
1.7
1.7
1.7
1.7
1.7
1.7
1.7
1.7
1.7
1.7
1.7
1.7
1.7
1.7
1.7
1.7
1.7
1.7
1.7
1.7
1.7
1.7
1.7
1.7
1.7
1.7
1.7
1.7
1.7
1.7
1.7
1.7
1.7
1.7
1.7
1.7
1.7
1.7
1.7
1.7
1.7
1.7
1.7
1.7
1.7
1.7
1.7
1.7
1.7
1.7
1.7
1.7
1.7
1.7
1.7
1.7
1.7
1.7
1.7
1.7
1.7
1.7
1.7
1.7
1.7
1.7
1.7
1.7
1.7
1.7
1.7
1.7
1.7
1.7
1.7
1.7
1.7
1.7
1.7
1.7
1.7
1.7
1.7
1.7
1.7
1.7
1.7
1.7
1.7
1.7
1.7
1.7
1.7
1.7
1.7
1.7
1.7
1.7
1.7
1.7
1.7
1.7
1.7
1.7
1.7
1.7
1.7
1.7
1.7
1.7
1.7
1.7
1.7
1.7
1.7
1.7
1.7
1.7
1.7
1.7
1.7
1.7
1.7
1.7
1.7
1.7
1.7
1.7
1.7
1.7
1.7
1.7
1.7
1.7
1.7
1.7
1.7
1.7
1.7
1.7
1.7
1.7
1.7
1.7
1.7
1.7
1.7
1.7
1.7
1.7
1.7
1.7
1.7
1.7
1.7
1.7
1.7
1.7
1.7
1.7
1.7
1.7
1.7
1.7
1.7
1.7
1.7
1.7
1.7
1.7
1.7
1.7
1.7
1.7
1.7
1.7
1.7
1.7
1.7
1.7
1.7
1.7
1.7
1.7
1.7
1.7
1.7
1.7
1.7
1.7
1.7
1.7
1.7
1.7
1.7
1.7
1.7
1.7
1.7
1.7
1.7
1.7
1.7
1.7
1.7
1.7
1.7
1.7
1.7
1.7
1.7
1.7
1.7
1.7
1.7
1.7
1.7
1.7
1.7
1.7
1.7
1.7
1.7
1.7
1.7
1.7
1.7
1.7
1.7
1.7
1.7
1.7
1.7
1.7
1.7
1.7
1.7
1.7
1.7
1.7
1.7
1.7
1.7
1.7
1.7
1.7
1.7
1.7
1.7
1.7
1.7
1.7
1.7
1.7
1.7
1.7
1.7
1.7
1.7
1.7
1.7
1.7
1.7
1.7
1.7
1.7
1.7
1.7
1.7
1.7
1.7
1.7
1.7
1.7
1.7
1.7
1.7
1.7
1.7
1.7
1.7
1.7
1.7
1.7
1.7
1.7
1.7
1.7
1.7
1.7
1.7
1.7
1.7
1.7
1.7
1.7
1.7
1.7
1.7
1.7
1.7
1.7
1.7
1.7
1.7
1.7
1.7
1.7
1.7
1.7
1.7
1.7
1.7
1.7
1.7
1.7
1.7
1.7
1.7
1.7
1.7
1.7
1.7
1.7
1.7
1.7
1.7
1.7
1.7
1.7
1.7
1.7
1.7
1.7
1.7
1.7
1.7
1.7
1.7
1.7
1.7
1.7
1.7
1.7
1.7
1.7
1.7
1.7
1.7
1.7
1.7
1.7
1.7
1.7
VECTORS vectors float
0.3125 0 0
0.3125 0 0
0.3125 0 0
0.3125 0 0
0.3125 0 0
0.3125 0 0
0.3125 0 0
0.3125 0 0
0.3125 0 0
0.3125 0 0
0.3125 0 0
0.3125 0 0
0.3125 0 0
0.3125 0 0
0.3125 0 0
0.3125 0 0
0.3125 0 0
0.3125 0 0
0.3125 0 0
0.3125 0 0
0.3125 0 0
0.3125 0 0
0.3125 0 0
0.3125 0 0
0.3125 0 0
0.3125 0 0
0.3125 0 0
0.3125 0 0
0.3125 0 0
0.3125 0 0
0.3125 0 0
0.3125 0 0
0.3125 0 0
0.3125 0 0
0.3125 0 0
0.3125 0 0
0.3125 0 0
0.3125 0 0
0.3125 0 0
0.3125 0 0
0.3125 0 0
0.3125 0 0
0.3125 0 0
0.3125 0 0
0.3125 0 0
0.3125 0 0
0.3125 0 0
0.3125 0 0
0.3125 0 0
0.3125 0 0
0.3125 0 0
0.3125 0 0
0.3125 0 0
0.3125 0 0
0.3125 0 0
0.3125 0 0
0.3125 0 0
0.3125 0 0
0.3125 0 0
0.3125 0 0
0.3125 0 0
0.3125 0 0
0.3125 0 0
0.3125 0 0
0.3125 0 0
0.3125 0 0
0.3125 0 0
0.3125 0 0
0.3125 0 0
0.3125 0 0
0.3125 0 0
0.3125 0 0
0.3125 0 0
0.3125 0 0
0.3125 0 0
0.3125 0 0
0.3125 0 0
0.3125 0 0
0.3125 0 0
0.3125 0 0
0.3125 0 0
0.3125 0 0
0.3125 0 0
0.3125 0 0
0.3125 0 0
0.3125 0 0
0.3125 0 0
0.3125 0 0
0.3125 0 0
0.3125 0 0
0.3125 0 0
0.3125 0 0
0.3125 0 0
0.3125 0 0
0.3125 0 0
0.3125 0 0
0.3125 0 0
0.3125 0 0
0.3125 0 0
0.3125 0 0
0.3125 0 0
0.3125 0 0
0.3125 0 0
0.3125 0 0
0.3125 0 0
0.3125 0 0
0.3125 0 0
0.3125 0 0
0.3125 0 0
0.3125 0 0
0.3125 0 0
0.3125 0 0
0.3125 0 0
0.3125 0 0
0.3125 0 0
0.3125 0 0
0.3125 0 0
0.3125 0 0
0.3125 0 0
0.3125 0 0
0.3125 0 0
0.3125 0 0
0.3125 0 0
0.3125 0 0
0.3125 0 0
0.3125 0 0
0.3125 0 0
0.3125 0 0
0.3125 0 0
0.3125 0 0
0.3125 0 0
0.3125 0 0
0.3125 0 0
0.3125 0 0
0.3125 0 0
0.3125 0 0
0.3125 0 0
0.3125 0 0
0.3125 0 0
0.3125 0 0
0.3125 0 0
0.3125 0 0
0.3125 0 0
0.3125 0 0
0.3125 0 0
0.3125 0 0
0.3125 0 0
0.3125 0 0
0.3125 0 0
0.3125 0 0
0.3125 0 0
0.3125 0 0
0.3125 0 0
0.3125 0 0
0.3125 0 0
0.3125 0 0
0.3125 0 0
0.3125 0 0
0.3125 0 0
0.3125 0 0
0.3125 0 0
0.3125 0 0
0.3125 0 0
0.3125 0 0
0.3125 0 0
0.3125 0 0
0.3125 0 0
0.3125 0 0
0.3125 0 0
0.3125 0 0
0.3125 0 0
0.3125 0 0
0.3125 0 0
0.3125 0 0
0.3125 0 0
0.3125 0 0
0.3125 0 0
0.3125 0 0
0.3125 0 0
0.3125 0 0
0.3125 0 0
0.3125 0 0
0.3125 0 0
0.3125 0 0
0.3125 0 0
0.3125 0 0
0.3125 0 0
0.3125 0 0
0.3125 0 0
0.3125 0 0
0.3125 0 0
0.3125 0 0
0.3125 0 0
0.3125 0 0
0.3125 0 0
0.3125 0 0
0.3125 0 0
0.3125 0 0
0.3125 0 0
0.3125 0 0
0.3125 0 0
0.3125 0 0
0.3125 0 0
0.3125 0 0
0.3125 0 0
0.3125 0 0
0.3125 0 0
0.3125 0 0
0.3125 0 0
0.3125 0 0
0.3125 0 0
0.3125 0 0
0.3125 0 0
0.3125 0 0
0.3125 0 0
0.3125 0 0
0.3125 0 0
0.3125 0 0
0.3125 0 0
0.3125 0 0
0.3125 0 0
0.3125 0 0
0.3125 0 0
0.3125 0 0
0.3125 0 0
0.3125 0 0
0.3125 0 0
0.3125 0 0
0.3125 0 0
0.3125 0 0
0.3125 0 0
0.3125 0 0
0.3125 0 0
0.3125 0 0
0.3125 0 0
0.3125 0 0
0.3125 0 0
0.3125 0 0
0.3125 0 0
0.3125 0 0
0.3125 0 0
0.3125 0 0
0.3125 0 0
0.3125 0 0
0.3125 0 0
0.3125 0 0
0.3125 0 0
0.3125 0 0
0.3125 0 0
0.3125 0 0
0.3125 0 0
0.3125 0 0
0.3125 0 0
0.3125 0 0
0.3125 0 0
0.3125 0 0
0.3125 0 0
0.3125 0 0
0.3125 0 0
0.3125 0 0
0.3125 0 0
0.3125 0 0
0.3125 0 0
0.3125 0 0
0.3125 0 0
0.3125 0 0
0.3125 0 0
0.3125 0 0
0.3125 0 0
0.3125 0 0
0.3125 0 0
0.3125 0 0
0.3125 0 0
0.3125 0 0
0.3125 0 0
0.3125 0 0
0.3125 0 0
0.3125 0 0
0.3125 0 0
0.3125 0 0
0.3125 0 0
0.3125 0 0
0.3125 0 0
0.3125 0 0
0.3125 0 0
0.3125 0 0
0.3125 0 0
0.3125 0 0
0.3125 0 0
0.3125 0 0
0.3125 0 0
0.3125 0 0
0.3125 0 0
0.3125 0 0
0.3125 0 0
0.3125 0 0
0.3125 0 0
0.3125 0 0
0.3125 0 0
0.3125 0 0
0.3125 0 0
0.3125 0 0
0.3125 0 0
0.3125 0 0
0.3125 0 0
0.3125 0 0
0.3125 0 0
0.3125 0 0
0.3125 0 0
0.3125 0 0
0.3125 0 0
0.3125 0 0
0.3125 0 0
0.3125 0 0
0.3125 0 0
0.3125 0 0
0.3125 0 0
0.3125 0 0
0.3125 0 0
0.3125 0 0
0.3125 0 0
0.3125 0 0
0.3125 0 0
0.3125 0 0
0.3125 0 0
0.3125 0 0
0.3125 0 0
0.3125 0 0
0.3125 0 0
0.3125 0 0
0.3125 0 0
0.3125 0 0
0.3125 0 0
0.3125 0 0
0.3125 0 0
0.3125 0 0
0.3125 0 0
0.3125 0 0
0.3125 0 0
0.3125 0 0
0.3125 0 0
0.3125 0 0
0.3125 0 0
0.3125 0 0
0.3125 0 0
0.3125 0 0
0.3125 0 0
0.3125 0 0
0.3125 0 0
0.3125 0 0
0.3125 0 0
0.3125 0 0
0.3125 0 0
0.3125 0 0
0.3125 0 0
0.3125 0 0
0.3125 0 0
0.3125 0 0
0.3125 0 0
0.3125 0 0
0.3125 0 0
0.3125 0 0
0.3125 0 0
0.3125 0 0
0.3125 0 0
0.3125 0 0
0.3125 0 0
0.3125 0 0
0.3125 0 0
0.3125 0 0
0.3125 0 0
0.3125 0 0
