# vtk DataFile Version 1.0
Cube
ASCII

DATASET POLYDATA
POINTS 522 float
9.923849 -0.259604 12.821372
11.122686 -0.052948 13.847488
9.923849 29.740396 12.821372
11.122686 29.947052 13.847488
11.107435 23.364601 10.022107
10.089792 23.154536 9.009672
16.424471 11.684530 23.195423
15.419435 12.441689 22.265384
10.833748 3.574716 18.459880
9.951862 4.798556 18.781660
11.799118 9.526642 21.140112
12.813548 8.536758 21.623554
6.711607 12.637662 9.790522
5.260592 12.346900 10.144053
1.159588 12.921417 18.293730
2.743774 12.905080 18.098121
31.159588 12.921417 18.293730
32.743774 12.905080 18.098121
7.117538 1.003871 15.529716
5.953957 0.749334 16.413938
7.117538 31.003871 15.529716
5.953957 30.749334 16.413938
16.497340 -1.840239 8.616474
17.732433 -1.520117 9.342814
16.497340 28.159761 8.616474
17.732433 28.479883 9.342814
-0.922966 8.363749 15.510475
-2.284880 8.543379 15.975651
29.077034 8.363749 15.510475
27.715120 8.543379 15.975651
1.252392 17.737422 18.690908
1.502077 16.388570 19.351291
31.252392 17.737422 18.690908
31.502077 16.388570 19.351291
15.991435 0.885222 19.317647
16.170206 -0.270047 20.261329
15.991435 30.885222 19.317647
16.170206 29.729953 20.261329
24.648807 21.857502 3.068644
25.504902 20.633317 2.997167
16.728260 15.154193 27.208935
16.215386 14.190557 26.144433
8.513394 25.790295 15.578429
7.012779 25.615280 15.373887
5.787575 25.844135 19.922212
6.860239 25.981561 21.011934
19.781367 0.356383 0.211628
20.818632 -0.463932 -0.687215
19.781367 0.356383 30.211628
20.818632 -0.463932 29.312785
19.781367 30.356383 0.211628
20.818632 29.536068 -0.687215
19.781367 30.356383 30.211628
20.818632 29.536068 29.312785
6.454078 14.144400 17.849225
6.569510 12.701094 17.251099
3.054138 -2.670590 25.767456
3.710901 -2.436646 27.239709
3.054138 27.329410 25.767456
3.710901 27.563354 27.239709
21.692361 19.888701 16.741667
23.098445 19.386466 16.637273
19.995724 -0.002821 17.850205
20.918573 0.837814 18.909466
19.995724 29.997179 17.850205
20.918573 30.837814 18.909466
0.837142 25.076403 0.195158
1.726906 23.841585 0.591448
0.837142 25.076403 30.195158
1.726906 23.841585 30.591448
30.837142 25.076403 0.195158
31.726906 23.841585 0.591448
30.837142 25.076403 30.195158
31.726906 23.841585 30.591448
15.330079 14.050994 18.508039
16.124430 13.738697 17.255086
2.986686 23.363624 17.898921
3.683997 23.848854 16.539031
1.999956 5.152447 20.971745
2.701783 4.522695 19.745900
31.999956 5.152447 20.971745
32.701783 4.522695 19.745900
2.477421 25.791465 4.594225
3.485458 25.241298 5.713120
32.477421 25.791465 4.594225
33.485458 25.241298 5.713120
13.575439 26.499826 16.667833
12.295047 27.059938 16.008624
2.483614 23.682875 25.534207
3.953413 23.824753 25.178055
22.098238 23.334611 25.573500
23.445841 23.250625 26.332552
25.086859 12.294477 1.195502
24.265767 12.322694 2.468522
25.086859 12.294477 31.195502
24.265767 12.322694 32.468522
25.270577 -1.924414 19.578547
23.873348 -2.558548 20.009051
25.270577 28.075586 19.578547
23.873348 27.441452 20.009051
22.569935 23.083234 10.673081
22.387432 24.621294 10.709732
19.818610 7.956740 24.087992
21.291483 7.387516 23.556830
18.146140 10.917445 13.344903
18.007882 12.496246 13.145504
5.097650 7.680326 22.043262
6.251274 6.816687 21.394723
14.063049 19.891893 17.024187
14.981717 18.718024 17.021343
0.731815 1.171507 26.239401
1.069939 1.184128 24.743337
0.731815 31.171507 26.239401
1.069939 31.184128 24.743337
30.731815 1.171507 26.239401
31.069939 1.184128 24.743337
30.731815 31.171507 26.239401
31.069939 31.184128 24.743337
0.121824 9.067175 19.469194
1.497988 8.422171 19.157863
30.121824 9.067175 19.469194
31.497988 8.422171 19.157863
23.436988 4.370267 2.159183
23.562664 2.882853 1.741315
23.436988 4.370267 32.159183
23.562664 2.882853 31.741315
15.479339 6.840512 20.176613
16.881837 6.397186 19.598862
19.088761 17.489892 24.839770
20.448546 16.998129 24.471431
4.700139 6.546785 16.693606
5.153514 8.049775 16.615499
2.005649 8.562375 24.616359
2.870106 9.860977 24.457242
32.005649 8.562375 24.616359
32.870106 9.860977 24.457242
10.000577 8.151224 -1.012983
11.324054 7.416846 -0.699713
10.000577 8.151224 28.987017
11.324054 7.416846 29.300287
5.710579 1.873456 25.612811
4.952938 0.739295 24.804766
5.710579 31.873456 25.612811
4.952938 30.739295 24.804766
22.354924 10.821570 19.838306
21.995818 11.230763 21.191969
25.003914 -0.137292 7.758708
25.138186 -0.457522 6.343531
25.003914 29.862708 7.758708
25.138186 29.542478 6.343531
10.661788 -0.139650 18.315653
9.431009 -0.244868 17.453411
10.661788 29.860350 18.315653
9.431009 29.755132 17.453411
6.327876 25.453492 -0.376072
7.277726 25.014648 0.762080
6.327876 25.453492 29.623928
7.277726 25.014648 30.762080
14.624058 -2.331164 5.512750
14.187393 -2.075258 4.063079
14.624058 27.668836 5.512750
14.187393 27.924742 4.063079
20.185896 8.141953 7.276790
19.686493 9.095362 6.171976
26.292043 21.984662 -1.383283
25.248610 21.021548 -1.144446
26.292043 21.984662 28.616717
25.248610 21.021548 28.855554
11.261851 18.742715 6.901001
12.288486 18.241344 5.776719
5.442729 18.215369 8.943864
4.618470 18.895388 9.953318
1.420165 2.849751 14.102023
1.285483 2.304859 15.581146
1.420165 32.849751 14.102023
1.285483 32.304859 15.581146
31.420165 2.849751 14.102023
31.285483 2.304859 15.581146
31.420165 32.849751 14.102023
31.285483 32.304859 15.581146
22.546745 2.381551 23.919924
23.424414 2.717320 22.736714
22.546745 32.381551 23.919924
23.424414 32.717320 22.736714
23.758195 16.777615 3.163381
24.515194 15.645126 3.986539
4.213482 1.649911 20.883593
4.776910 0.297465 20.858692
4.213482 31.649911 20.883593
4.776910 30.297465 20.858692
19.370592 3.972679 17.188873
20.042695 5.405432 17.485744
5.772213 21.776349 13.250633
6.488955 21.719221 14.662360
2.783875 20.816241 22.345595
3.074455 21.009948 20.876361
32.783875 20.816241 22.345595
33.074455 21.009948 20.876361
-1.187689 6.764870 4.383238
-0.806954 8.343534 4.066844
28.812311 6.764870 4.383238
29.193046 8.343534 4.066844
17.251321 2.535187 27.422921
16.454377 2.816153 26.173984
17.251321 32.535187 27.422921
16.454377 32.816153 26.173984
-0.750835 24.853060 4.048315
-2.013668 24.006955 4.091921
29.249165 24.853060 4.048315
27.986332 24.006955 4.091921
19.827263 13.821687 17.624950
19.566827 12.369469 17.847722
22.572089 12.084221 10.203232
23.736723 12.609449 9.288471
14.548428 14.028316 0.649203
15.367156 12.678292 0.676925
14.548428 14.028316 30.649203
15.367156 12.678292 30.676925
7.090460 -2.027354 24.852369
7.223197 -1.316871 26.277189
7.090460 27.972646 24.852369
7.223197 28.683129 26.277189
1.093087 17.115780 23.629892
1.563344 15.687641 23.436169
31.093087 17.115780 23.629892
31.563344 15.687641 23.436169
8.255313 21.764294 18.865260
6.993426 22.385415 18.490235
7.464332 2.543533 10.205497
7.932100 1.545454 9.220831
7.464332 32.543533 10.205497
7.932100 31.545454 9.220831
11.869333 16.509704 21.719746
12.382925 15.754703 22.910214
10.866457 11.600057 1.188553
10.731803 12.069463 2.560842
10.866457 11.600057 31.188553
10.731803 12.069463 32.560842
15.028878 9.330255 0.193555
15.491217 9.602974 -1.323875
15.028878 9.330255 30.193555
15.491217 9.602974 28.676125
18.583227 25.136834 7.689155
17.441731 24.293544 7.140887
24.138612 16.798284 26.656258
23.861341 18.233391 26.216106
26.392767 23.813319 17.471017
25.737950 23.607915 18.859765
17.751334 17.176285 20.011711
17.641411 17.293186 21.549343
21.596606 21.138041 22.434160
22.569634 22.350156 21.957221
8.622010 19.447528 0.746858
8.075881 19.778981 2.227228
8.622010 19.447528 30.746858
8.075881 19.778981 32.227228
1.906681 3.192575 2.722849
0.565825 2.445750 2.305193
1.906681 3.192575 32.722849
0.565825 2.445750 32.305193
1.906681 33.192575 2.722849
0.565825 32.445750 2.305193
1.906681 33.192575 32.722849
0.565825 32.445750 32.305193
31.906681 3.192575 2.722849
30.565825 2.445750 2.305193
31.906681 3.192575 32.722849
30.565825 2.445750 32.305193
31.906681 33.192575 2.722849
30.565825 32.445750 2.305193
31.906681 33.192575 32.722849
30.565825 32.445750 32.305193
-0.161950 17.478109 14.421121
-1.666508 17.219453 14.276523
29.838050 17.478109 14.421121
28.333492 17.219453 14.276523
21.467551 23.307422 -0.489790
22.234604 22.226858 0.277481
21.467551 23.307422 29.510210
22.234604 22.226858 30.277481
8.556198 9.812724 24.620168
9.196878 8.439770 24.754544
21.691766 17.148504 5.970807
20.383689 18.078254 5.880497
12.745818 21.528198 20.085111
11.780381 20.517369 19.563681
0.990595 -2.685366 17.431729
-0.617786 -2.270514 17.219260
0.990595 27.314634 17.431729
-0.617786 27.729486 17.219260
30.990595 -2.685366 17.431729
29.382214 -2.270514 17.219260
30.990595 27.314634 17.431729
29.382214 27.729486 17.219260
12.074956 17.140330 2.261396
12.578383 18.530292 1.638430
12.074956 17.140330 32.261396
12.578383 18.530292 31.638430
21.290442 4.659571 -2.784041
20.857573 6.213660 -2.575635
21.290442 4.659571 27.215959
20.857573 6.213660 27.424365
17.261922 -2.500686 -0.837464
18.150816 -3.340428 -1.834578
17.261922 -2.500686 29.162536
18.150816 -3.340428 28.165422
17.261922 27.499314 -0.837464
18.150816 26.659572 -1.834578
17.261922 27.499314 29.162536
18.150816 26.659572 28.165422
0.563435 24.106784 14.019961
0.777466 24.648739 12.661302
30.563435 24.106784 14.019961
30.777466 24.648739 12.661302
20.764643 11.576705 25.935833
22.176290 11.645243 25.423073
19.219615 24.672876 24.741228
17.846908 23.985735 24.441952
13.917428 26.248101 0.469232
12.915415 27.301558 -0.001151
13.917428 26.248101 30.469232
12.915415 27.301558 29.998849
-0.881062 13.065834 14.651555
-1.643972 12.617677 15.838193
29.118938 13.065834 14.651555
28.356028 12.617677 15.838193
9.024147 5.572530 4.598774
8.211055 4.998547 3.441613
-0.486421 17.628865 9.881166
-1.744100 18.234824 10.518644
29.513579 17.628865 9.881166
28.255900 18.234824 10.518644
14.679469 15.331310 7.592014
16.030119 15.710335 8.270060
9.171739 15.460494 14.765452
10.478711 15.576764 14.021363
7.535836 16.242947 5.803233
7.318489 17.238481 4.668820
12.013464 2.617728 22.159303
11.598719 4.085584 22.385122
16.859624 19.349270 10.177356
18.077691 19.668456 10.976696
24.878645 6.906937 18.531551
24.471332 6.117698 19.719365
2.326349 22.046911 9.721797
3.608912 23.023771 9.528423
32.326349 22.046911 9.721797
33.608912 23.023771 9.528423
20.472673 24.733543 15.967844
20.691118 25.819893 14.861088
12.342663 26.496760 24.253129
12.458753 27.168324 25.667799
2.983505 14.795566 4.246765
4.448801 14.461438 4.137413
15.632084 19.198054 -1.178212
17.062376 19.407123 -1.444406
15.632084 19.198054 28.821788
17.062376 19.407123 28.555594
16.877924 15.713674 14.199380
15.642668 14.779649 14.065510
23.975788 -2.425771 15.868669
25.362260 -2.989503 15.650947
23.975788 27.574229 15.868669
25.362260 27.010497 15.650947
7.873782 25.059483 11.654297
8.226740 26.429379 11.199283
24.671001 14.020112 15.650771
24.516943 15.541262 15.928428
20.095883 22.154115 5.354566
21.499293 22.322603 5.724180
9.963117 -1.333992 5.742411
10.846180 -0.743220 6.833473
9.963117 28.666008 5.742411
10.846180 29.256780 6.833473
10.316915 26.883234 20.997938
11.568825 25.989094 20.557156
0.278329 -1.202412 21.861663
-0.270753 -0.561300 20.682512
0.278329 28.797588 21.861663
-0.270753 29.438700 20.682512
30.278329 -1.202412 21.861663
29.729247 -0.561300 20.682512
30.278329 28.797588 21.861663
29.729247 29.438700 20.682512
4.417998 3.079417 6.913557
4.032058 2.051898 5.858048
4.417998 33.079417 6.913557
4.032058 32.051898 5.858048
26.172934 1.654813 13.431472
27.058317 0.914557 14.578722
26.172934 31.654813 13.431472
27.058317 30.914557 14.578722
16.853931 7.250176 12.817407
15.593771 6.468853 13.386151
20.399381 4.447144 10.576379
20.493904 5.900281 10.126532
6.431668 19.794199 21.945173
7.651930 18.914228 22.042074
22.943315 26.628573 1.187875
24.184622 26.093636 1.785388
22.943315 26.628573 31.187875
24.184622 26.093636 31.785388
0.970100 -1.680261 2.603924
1.127319 -1.170482 1.121306
0.970100 -1.680261 32.603924
1.127319 -1.170482 31.121306
0.970100 28.319739 2.603924
1.127319 28.829518 1.121306
0.970100 28.319739 32.603924
1.127319 28.829518 31.121306
30.970100 -1.680261 2.603924
31.127319 -1.170482 1.121306
30.970100 -1.680261 32.603924
31.127319 -1.170482 31.121306
30.970100 28.319739 2.603924
31.127319 28.829518 1.121306
30.970100 28.319739 32.603924
31.127319 28.829518 31.121306
18.362426 22.354547 18.841826
19.907105 22.764685 18.976763
-1.481548 2.506959 5.866160
-1.127206 1.281715 6.895706
-1.481548 32.506959 5.866160
-1.127206 31.281715 6.895706
28.518452 2.506959 5.866160
28.872794 1.281715 6.895706
28.518452 32.506959 5.866160
28.872794 31.281715 6.895706
11.604036 3.015987 -1.599392
11.028153 3.151317 -0.185893
11.604036 3.015987 28.400608
11.028153 3.151317 29.814107
7.555932 9.750258 18.408417
8.389477 8.651917 18.844819
18.145316 9.174550 1.711887
18.006639 10.480139 2.525893
18.145316 9.174550 31.711887
18.006639 10.480139 32.525893
25.057838 5.621809 10.164724
25.215607 4.099030 9.852061
23.669722 19.154388 12.194943
22.244983 19.212032 11.796354
26.574811 -1.678463 -1.077266
25.746861 -0.628204 -0.404478
26.574811 -1.678463 28.922734
25.746861 -0.628204 29.595522
26.574811 28.321537 -1.077266
25.746861 29.371796 -0.404478
26.574811 28.321537 28.922734
25.746861 29.371796 29.595522
3.757208 18.734577 14.051289
3.193530 19.454098 15.245338
9.580432 3.671828 14.485737
8.504724 4.012768 13.431765
4.437659 11.332784 -1.724376
4.011697 11.457558 -0.286295
4.437659 11.332784 28.275624
4.011697 11.457558 29.713705
10.217981 9.566997 10.184205
9.585525 8.123082 10.314112
19.040317 1.265681 11.397644
20.182833 0.496043 11.951563
19.040317 31.265681 11.397644
20.182833 30.496043 11.951563
25.959680 5.578123 -0.359336
26.023558 4.089669 -0.794540
25.959680 5.578123 29.640664
26.023558 4.089669 29.205460
22.866921 25.674771 7.354944
24.183854 25.316849 6.632631
-0.095084 25.432757 20.750307
-0.767488 24.078440 20.951937
29.904916 25.432757 20.750307
29.232512 24.078440 20.951937
10.955406 17.536566 -3.136466
12.270418 17.548979 -2.362328
10.955406 17.536566 26.863534
12.270418 17.548979 27.637672
8.859033 18.477896 10.592684
9.405899 19.439844 11.688070
15.704999 -1.423169 25.416104
16.809746 -1.946326 24.602076
15.704999 28.576831 25.416104
16.809746 28.053674 24.602076
3.455016 -2.619823 12.574427
3.590978 -1.568103 13.640922
3.455016 27.380177 12.574427
3.590978 28.431897 13.640922
5.851719 -0.221910 1.031436
5.201864 1.158116 1.415203
5.851719 -0.221910 31.031436
5.201864 1.158116 31.415203
5.851719 29.778090 1.031436
5.201864 31.158116 1.415203
5.851719 29.778090 31.031436
5.201864 31.158116 31.415203
2.631057 15.874699 -1.587247
2.892920 14.816498 -2.612792
2.631057 15.874699 28.412753
2.892920 14.816498 27.387208
32.631057 15.874699 -1.587247
32.892920 14.816498 -2.612792
32.631057 15.874699 28.412753
32.892920 14.816498 27.387208
0.083650 17.344528 2.222722
-0.466745 15.972306 2.146790
0.083650 17.344528 32.222722
-0.466745 15.972306 32.146790
30.083650 17.344528 2.222722
29.533255 15.972306 2.146790
30.083650 17.344528 32.222722
29.533255 15.972306 32.146790
-2.330077 16.781662 21.952248
-2.434397 18.281361 21.973048
27.669923 16.781662 21.952248
27.565603 18.281361 21.973048
5.209901 16.469492 22.799902
5.721378 15.099663 23.070993
13.209829 22.551825 13.443302
12.662996 23.799908 14.025702
7.838716 11.483659 21.235036
8.814797 12.622236 21.619567
LINES 261 783
2 0 1
2 2 3
2 4 5
2 6 7
2 8 9
2 10 11
2 12 13
2 14 15
2 16 17
2 18 19
2 20 21
2 22 23
2 24 25
2 26 27
2 28 29
2 30 31
2 32 33
2 34 35
2 36 37
2 38 39
2 40 41
2 42 43
2 44 45
2 46 47
2 48 49
2 50 51
2 52 53
2 54 55
2 56 57
2 58 59
2 60 61
2 62 63
2 64 65
2 66 67
2 68 69
2 70 71
2 72 73
2 74 75
2 76 77
2 78 79
2 80 81
2 82 83
2 84 85
2 86 87
2 88 89
2 90 91
2 92 93
2 94 95
2 96 97
2 98 99
2 100 101
2 102 103
2 104 105
2 106 107
2 108 109
2 110 111
2 112 113
2 114 115
2 116 117
2 118 119
2 120 121
2 122 123
2 124 125
2 126 127
2 128 129
2 130 131
2 132 133
2 134 135
2 136 137
2 138 139
2 140 141
2 142 143
2 144 145
2 146 147
2 148 149
2 150 151
2 152 153
2 154 155
2 156 157
2 158 159
2 160 161
2 162 163
2 164 165
2 166 167
2 168 169
2 170 171
2 172 173
2 174 175
2 176 177
2 178 179
2 180 181
2 182 183
2 184 185
2 186 187
2 188 189
2 190 191
2 192 193
2 194 195
2 196 197
2 198 199
2 200 201
2 202 203
2 204 205
2 206 207
2 208 209
2 210 211
2 212 213
2 214 215
2 216 217
2 218 219
2 220 221
2 222 223
2 224 225
2 226 227
2 228 229
2 230 231
2 232 233
2 234 235
2 236 237
2 238 239
2 240 241
2 242 243
2 244 245
2 246 247
2 248 249
2 250 251
2 252 253
2 254 255
2 256 257
2 258 259
2 260 261
2 262 263
2 264 265
2 266 267
2 268 269
2 270 271
2 272 273
2 274 275
2 276 277
2 278 279
2 280 281
2 282 283
2 284 285
2 286 287
2 288 289
2 290 291
2 292 293
2 294 295
2 296 297
2 298 299
2 300 301
2 302 303
2 304 305
2 306 307
2 308 309
2 310 311
2 312 313
2 314 315
2 316 317
2 318 319
2 320 321
2 322 323
2 324 325
2 326 327
2 328 329
2 330 331
2 332 333
2 334 335
2 336 337
2 338 339
2 340 341
2 342 343
2 344 345
2 346 347
2 348 349
2 350 351
2 352 353
2 354 355
2 356 357
2 358 359
2 360 361
2 362 363
2 364 365
2 366 367
2 368 369
2 370 371
2 372 373
2 374 375
2 376 377
2 378 379
2 380 381
2 382 383
2 384 385
2 386 387
2 388 389
2 390 391
2 392 393
2 394 395
2 396 397
2 398 399
2 400 401
2 402 403
2 404 405
2 406 407
2 408 409
2 410 411
2 412 413
2 414 415
2 416 417
2 418 419
2 420 421
2 422 423
2 424 425
2 426 427
2 428 429
2 430 431
2 432 433
2 434 435
2 436 437
2 438 439
2 440 441
2 442 443
2 444 445
2 446 447
2 448 449
2 450 451
2 452 453
2 454 455
2 456 457
2 458 459
2 460 461
2 462 463
2 464 465
2 466 467
2 468 469
2 470 471
2 472 473
2 474 475
2 476 477
2 478 479
2 480 481
2 482 483
2 484 485
2 486 487
2 488 489
2 490 491
2 492 493
2 494 495
2 496 497
2 498 499
2 500 501
2 502 503
2 504 505
2 506 507
2 508 509
2 510 511
2 512 513
2 514 515
2 516 517
2 518 519
2 520 521
POINT_DATA 522
SCALARS my_scalars float
LOOKUP_TABLE default
1.7
1.7
1.7
1.7
1.7
1.7
1.7
1.7
1.7
1.7
1.7
1.7
1.7
1.7
1.7
1.7
1.7
1.7
1.7
1.7
1.7
1.7
1.7
1.7
1.7
1.7
1.7
1.7
1.7
1.7
1.7
1.7
1.7
1.7
1.7
1.7
1.7
1.7
1.7
1.7
1.7
1.7
1.7
1.7
1.7
1.7
1.7
1.7
1.7
1.7
1.7
1.7
1.7
1.7
1.7
1.7
1.7
1.7
1.7
1.7
1.7
1.7
1.7
1.7
1.7
1.7
1.7
1.7
1.7
1.7
1.7
1.7
1.7
1.7
1.7
1.7
1.7
1.7
1.7
1.7
1.7
1.7
1.7
1.7
1.7
1.7
1.7
1.7
1.7
1.7
1.7
1.7
1.7
1.7
1.7
1.7
1.7
1.7
1.7
1.7
1.7
1.7
1.7
1.7
1.7
1.7
1.7
1.7
1.7
1.7
1.7
1.7
1.7
1.7
1.7
1.7
1.7
1.7
1.7
1.7
1.7
1.7
1.7
1.7
1.7
1.7
1.7
1.7
1.7
1.7
1.7
1.7
1.7
1.7
1.7
1.7
1.7
1.7
1.7
1.7
1.7
1.7
1.7
1.7
1.7
1.7
1.7
1.7
1.7
1.7
1.7
1.7
1.7
1.7
1.7
1.7
1.7
1.7
1.7
1.7
1.7
1.7
1.7
1.7
1.7
1.7
1.7
1.7
1.7
1.7
1.7
1.7
1.7
1.7
1.7
1.7
1.7
1.7
1.7
1.7
1.7
1.7
1.7
1.7
1.7
1.7
1.7
1.7
1.7
1.7
1.7
1.7
1.7
1.7
1.7
1.7
1.7
1.7
1.7
1.7
1.7
1.7
1.7
1.7
1.7
1.7
1.7
1.7
1.7
1.7
1.7
1.7
1.7
1.7
1.7
1.7
1.7
1.7
1.7
1.7
1.7
1.7
1.7
1.7
1.7
1.7
1.7
1.7
1.7
1.7
1.7
1.7
1.7
1.7
1.7
1.7
1.7
1.7
1.7
1.7
1.7
1.7
1.7
1.7
1.7
1.7
1.7
1.7
1.7
1.7
1.7
1.7
1.7
1.7
1.7
1.7
1.7
1.7
1.7
1.7
1.7
1.7
1.7
1.7
1.7
1.7
1.7
1.7
1.7
1.7
1.7
1.7
1.7
1.7
1.7
1.7
1.7
1.7
1.7
1.7
1.7
1.7
1.7
1.7
1.7
1.7
1.7
1.7
1.7
1.7
1.7
1.7
1.7
1.7
1.7
1.7
1.7
1.7
1.7
1.7
1.7
1.7
1.7
1.7
1.7
1.7
1.7
1.7
1.7
1.7
1.7
1.7
1.7
1.7
1.7
1.7
1.7
1.7
1.7
1.7
1.7
1.7
1.7
1.7
1.7
1.7
1.7
1.7
1.7
1.7
1.7
1.7
1.7
1.7
1.7
1.7
1.7
1.7
1.7
1.7
1.7
1.7
1.7
1.7
1.7
1.7
1.7
1.7
1.7
1.7
1.7
1.7
1.7
1.7
1.7
1.7
1.7
1.7
1.7
1.7
1.7
1.7
1.7
1.7
1.7
1.7
1.7
1.7
1.7
1.7
1.7
1.7
1.7
1.7
1.7
1.7
1.7
1.7
1.7
1.7
1.7
1.7
1.7
1.7
1.7
1.7
1.7
1.7
1.7
1.7
1.7
1.7
1.7
1.7
1.7
1.7
1.7
1.7
1.7
1.7
1.7
1.7
1.7
1.7
1.7
1.7
1.7
1.7
1.7
1.7
1.7
1.7
1.7
1.7
1.7
1.7
1.7
1.7
1.7
1.7
1.7
1.7
1.7
1.7
1.7
1.7
1.7
1.7
1.7
1.7
1.7
1.7
1.7
1.7
1.7
1.7
1.7
1.7
1.7
1.7
1.7
1.7
1.7
1.7
1.7
1.7
1.7
1.7
1.7
1.7
1.7
1.7
1.7
1.7
1.7
1.7
1.7
1.7
1.7
1.7
1.7
1.7
1.7
1.7
1.7
1.7
1.7
1.7
1.7
1.7
1.7
1.7
1.7
1.7
1.7
1.7
1.7
1.7
1.7
1.7
1.7
1.7
1.7
1.7
1.7
1.7
1.7
1.7
1.7
1.7
1.7
1.7
1.7
1.7
1.7
1.7
1.7
1.7
1.7
1.7
1.7
1.7
1.7
1.7
1.7
1.7
1.7
1.7
1.7
1.7
1.7
1.7
1.7
1.7
1.7
1.7
1.7
1.7
1.7
1.7
1.7
1.7
VECTORS vectors float
0.3125 0 0
0.3125 0 0
0.3125 0 0
0.3125 0 0
0.3125 0 0
0.3125 0 0
0.3125 0 0
0.3125 0 0
0.3125 0 0
0.3125 0 0
0.3125 0 0
0.3125 0 0
0.3125 0 0
0.3125 0 0
0.3125 0 0
0.3125 0 0
0.3125 0 0
0.3125 0 0
0.3125 0 0
0.3125 0 0
0.3125 0 0
0.3125 0 0
0.3125 0 0
0.3125 0 0
0.3125 0 0
0.3125 0 0
0.3125 0 0
0.3125 0 0
0.3125 0 0
0.3125 0 0
0.3125 0 0
0.3125 0 0
0.3125 0 0
0.3125 0 0
0.3125 0 0
0.3125 0 0
0.3125 0 0
0.3125 0 0
0.3125 0 0
0.3125 0 0
0.3125 0 0
0.3125 0 0
0.3125 0 0
0.3125 0 0
0.3125 0 0
0.3125 0 0
0.3125 0 0
0.3125 0 0
0.3125 0 0
0.3125 0 0
0.3125 0 0
0.3125 0 0
0.3125 0 0
0.3125 0 0
0.3125 0 0
0.3125 0 0
0.3125 0 0
0.3125 0 0
0.3125 0 0
0.3125 0 0
0.3125 0 0
0.3125 0 0
0.3125 0 0
0.3125 0 0
0.3125 0 0
0.3125 0 0
0.3125 0 0
0.3125 0 0
0.3125 0 0
0.3125 0 0
0.3125 0 0
0.3125 0 0
0.3125 0 0
0.3125 0 0
0.3125 0 0
0.3125 0 0
0.3125 0 0
0.3125 0 0
0.3125 0 0
0.3125 0 0
0.3125 0 0
0.3125 0 0
0.3125 0 0
0.3125 0 0
0.3125 0 0
0.3125 0 0
0.3125 0 0
0.3125 0 0
0.3125 0 0
0.3125 0 0
0.3125 0 0
0.3125 0 0
0.3125 0 0
0.3125 0 0
0.3125 0 0
0.3125 0 0
0.3125 0 0
0.3125 0 0
0.3125 0 0
0.3125 0 0
0.3125 0 0
0.3125 0 0
0.3125 0 0
0.3125 0 0
0.3125 0 0
0.3125 0 0
0.3125 0 0
0.3125 0 0
0.3125 0 0
0.3125 0 0
0.3125 0 0
0.3125 0 0
0.3125 0 0
0.3125 0 0
0.3125 0 0
0.3125 0 0
0.3125 0 0
0.3125 0 0
0.3125 0 0
0.3125 0 0
0.3125 0 0
0.3125 0 0
0.3125 0 0
0.3125 0 0
0.3125 0 0
0.3125 0 0
0.3125 0 0
0.3125 0 0
0.3125 0 0
0.3125 0 0
0.3125 0 0
0.3125 0 0
0.3125 0 0
0.3125 0 0
0.3125 0 0
0.3125 0 0
0.3125 0 0
0.3125 0 0
0.3125 0 0
0.3125 0 0
0.3125 0 0
0.3125 0 0
0.3125 0 0
0.3125 0 0
0.3125 0 0
0.3125 0 0
0.3125 0 0
0.3125 0 0
0.3125 0 0
0.3125 0 0
0.3125 0 0
0.3125 0 0
0.3125 0 0
0.3125 0 0
0.3125 0 0
0.3125 0 0
0.3125 0 0
0.3125 0 0
0.3125 0 0
0.3125 0 0
0.3125 0 0
0.3125 0 0
0.3125 0 0
0.3125 0 0
0.3125 0 0
0.3125 0 0
0.3125 0 0
0.3125 0 0
0.3125 0 0
0.3125 0 0
0.3125 0 0
0.3125 0 0
0.3125 0 0
0.3125 0 0
0.3125 0 0
0.3125 0 0
0.3125 0 0
0.3125 0 0
0.3125 0 0
0.3125 0 0
0.3125 0 0
0.3125 0 0
0.3125 0 0
0.3125 0 0
0.3125 0 0
0.3125 0 0
0.3125 0 0
0.3125 0 0
0.3125 0 0
0.3125 0 0
0.3125 0 0
0.3125 0 0
0.3125 0 0
0.3125 0 0
0.3125 0 0
0.3125 0 0
0.3125 0 0
0.3125 0 0
0.3125 0 0
0.3125 0 0
0.3125 0 0
0.3125 0 0
0.3125 0 0
0.3125 0 0
0.3125 0 0
0.3125 0 0
0.3125 0 0
0.3125 0 0
0.3125 0 0
0.3125 0 0
0.3125 0 0
0.3125 0 0
0.3125 0 0
0.3125 0 0
0.3125 0 0
0.3125 0 0
0.3125 0 0
0.3125 0 0
0.3125 0 0
0.3125 0 0
0.3125 0 0
0.3125 0 0
0.3125 0 0
0.3125 0 0
0.3125 0 0
0.3125 0 0
0.3125 0 0
0.3125 0 0
0.3125 0 0
0.3125 0 0
0.3125 0 0
0.3125 0 0
0.3125 0 0
0.3125 0 0
0.3125 0 0
0.3125 0 0
0.3125 0 0
0.3125 0 0
0.3125 0 0
0.3125 0 0
0.3125 0 0
0.3125 0 0
0.3125 0 0
0.3125 0 0
0.3125 0 0
0.3125 0 0
0.3125 0 0
0.3125 0 0
0.3125 0 0
0.3125 0 0
0.3125 0 0
0.3125 0 0
0.3125 0 0
0.3125 0 0
0.3125 0 0
0.3125 0 0
0.3125 0 0
0.3125 0 0
0.3125 0 0
0.3125 0 0
0.3125 0 0
0.3125 0 0
0.3125 0 0
0.3125 0 0
0.3125 0 0
0.3125 0 0
0.3125 0 0
0.3125 0 0
0.3125 0 0
0.3125 0 0
0.3125 0 0
0.3125 0 0
0.3125 0 0
0.3125 0 0
0.3125 0 0
0.3125 0 0
0.3125 0 0
0.3125 0 0
0.3125 0 0
0.3125 0 0
0.3125 0 0
0.3125 0 0
0.3125 0 0
0.3125 0 0
0.3125 0 0
0.3125 0 0
0.3125 0 0
0.3125 0 0
0.3125 0 0
0.3125 0 0
0.3125 0 0
0.3125 0 0
0.3125 0 0
0.3125 0 0
0.3125 0 0
0.3125 0 0
0.3125 0 0
0.3125 0 0
0.3125 0 0
0.3125 0 0
0.3125 0 0
0.3125 0 0
0.3125 0 0
0.3125 0 0
0.3125 0 0
0.3125 0 0
0.3125 0 0
0.3125 0 0
0.3125 0 0
0.3125 0 0
0.3125 0 0
0.3125 0 0
0.3125 0 0
0.3125 0 0
0.3125 0 0
0.3125 0 0
0.3125 0 0
0.3125 0 0
0.3125 0 0
0.3125 0 0
0.3125 0 0
0.3125 0 0
0.3125 0 0
0.3125 0 0
0.3125 0 0
0.3125 0 0
0.3125 0 0
0.3125 0 0
0.3125 0 0
0.3125 0 0
0.3125 0 0
0.3125 0 0
0.3125 0 0
0.3125 0 0
0.3125 0 0
0.3125 0 0
0.3125 0 0
0.3125 0 0
0.3125 0 0
0.3125 0 0
0.3125 0 0
0.3125 0 0
0.3125 0 0
0.3125 0 0
0.3125 0 0
0.3125 0 0
0.3125 0 0
0.3125 0 0
0.3125 0 0
0.3125 0 0
0.3125 0 0
0.3125 0 0
0.3125 0 0
0.3125 0 0
0.3125 0 0
0.3125 0 0
0.3125 0 0
0.3125 0 0
0.3125 0 0
0.3125 0 0
0.3125 0 0
0.3125 0 0
0.3125 0 0
0.3125 0 0
0.3125 0 0
0.3125 0 0
0.3125 0 0
0.3125 0 0
0.3125 0 0
0.3125 0 0
0.3125 0 0
0.3125 0 0
0.3125 0 0
0.3125 0 0
0.3125 0 0
0.3125 0 0
0.3125 0 0
0.3125 0 0
0.3125 0 0
0.3125 0 0
0.3125 0 0
0.3125 0 0
0.3125 0 0
0.3125 0 0
0.3125 0 0
0.3125 0 0
0.3125 0 0
0.3125 0 0
0.3125 0 0
0.3125 0 0
0.3125 0 0
0.3125 0 0
0.3125 0 0
0.3125 0 0
0.3125 0 0
0.3125 0 0
0.3125 0 0
0.3125 0 0
0.3125 0 0
0.3125 0 0
0.3125 0 0
0.3125 0 0
0.3125 0 0
0.3125 0 0
0.3125 0 0
0.3125 0 0
0.3125 0 0
0.3125 0 0
0.3125 0 0
0.3125 0 0
0.3125 0 0
0.3125 0 0
0.3125 0 0
0.3125 0 0
0.3125 0 0
0.3125 0 0
0.3125 0 0
0.3125 0 0
0.3125 0 0
0.3125 0 0
0.3125 0 0
0.3125 0 0
0.3125 0 0
0.3125 0 0
0.3125 0 0
0.3125 0 0
0.3125 0 0
0.3125 0 0
0.3125 0 0
0.3125 0 0
0.3125 0 0
0.3125 0 0
0.3125 0 0
0.3125 0 0
0.3125 0 0
0.3125 0 0
0.3125 0 0
0.3125 0 0
0.3125 0 0
0.3125 0 0
0.3125 0 0
0.3125 0 0
0.3125 0 0
0.3125 0 0
0.3125 0 0
0.3125 0 0
0.3125 0 0
0.3125 0 0
0.3125 0 0
0.3125 0 0
0.3125 0 0
0.3125 0 0
0.3125 0 0
0.3125 0 0
0.3125 0 0
0.3125 0 0
0.3125 0 0
0.3125 0 0
0.3125 0 0
0.3125 0 0
0.3125 0 0
0.3125 0 0
0.3125 0 0
0.3125 0 0
0.3125 0 0
0.3125 0 0
0.3125 0 0
0.3125 0 0
0.3125 0 0
0.3125 0 0
0.3125 0 0
0.3125 0 0
0.3125 0 0
0.3125 0 0
0.3125 0 0
0.3125 0 0
0.3125 0 0
0.3125 0 0
0.3125 0 0
0.3125 0 0
0.3125 0 0
0.3125 0 0
0.3125 0 0
0.3125 0 0
0.3125 0 0
0.3125 0 0
0.3125 0 0
0.3125 0 0
0.3125 0 0
0.3125 0 0
0.3125 0 0
0.3125 0 0
0.3125 0 0
0.3125 0 0
0.3125 0 0
0.3125 0 0
0.3125 0 0
0.3125 0 0
0.3125 0 0
0.3125 0 0
0.3125 0 0
0.3125 0 0
0.3125 0 0
0.3125 0 0
0.3125 0 0
0.3125 0 0
0.3125 0 0
0.3125 0 0
0.3125 0 0
0.3125 0 0
0.3125 0 0
0.3125 0 0
0.3125 0 0
0.3125 0 0
0.3125 0 0
0.3125 0 0
0.3125 0 0
0.3125 0 0
0.3125 0 0
0.3125 0 0
0.3125 0 0
0.3125 0 0
