Compiler and run-time data
===========================================================================
RASPA 2.0.47
Compiled as a 64-bits application
Compiler: gcc Apple LLVM 13.0.0 (clang-1300.0.29.30)
Compile Date = Apr 11 2022, Compile Time = 17:25:30

Tue May 17 08:48:18 2022
Simulation started on Tuesday, May 17.
The start time was 08:48 AM.

Cpu data:    x86_64
Cpu Model:   MacBookPro15,1
Host name:   amoghs-mbp.lan
OS release:  20.6.0
OS type:     Darwin
OS version:  20G527


Simulation
===========================================================================
Dimensions: 3
Random number seed: 1652791698
RASPA directory set to: /Users/amogh/RASPA/simulations/
String appended to output-files: 
Number of cycles: 5000
Number of initializing cycles: 1000
Number of equilibration cycles: 0
Print every: 100
Rectangular boundary condition applied
Timestep: 0.000500
	Degrees of freedom:                        1980
	Translational Degrees of freedom:          1980
	Rotational Degrees of freedom:             0
	Degrees of freedom Framework:              0


Mutual consistent basic set of units:
======================================
Unit of temperature: Kelvin
Unit of length:      1e-10 [m]
Unit of time:        1e-12 [s]
Unit of mass:        1.66054e-27 [kg]
Unit of charge:      1.60218e-19 [C/particle]

Derived units and their conversion factors:
===========================================
Unit of energy:              1.66054e-23 [J]
Unit of force:               1.66054e-13 [N]
Unit of pressure:            1.66054e+07 [Pa]
Unit of velocity:            100 [m/s]
Unit of acceleration:        1e-08 [m^2/s]
Unit of diffusion:           1e-08 [m^2/s]
Unit of dipole moment:       1.60218e-29 [C.m]
Unit of electric potential:  0.000103643 [V]
Unit of electric field:      1.03643e+06 [V]
Unit of polarizability:      1.54587e-35 [-]
Unit of Coulomb potential:   167101.0800066561  [K]
Unit of dielectric constant: 0.0000154587       [s^2 C^2/(kg m^3)]
Unit of wave vectors:        5.3088374589       [cm^1]
Boltzmann constant:          0.8314464919       [-]

Internal conversion factors:
===========================================
Energy to Kelvin:                                    1.2027242847
FH correction factor                                 2.0211930949
Heat capacity conversion factor:                    10.0000088723
From Debye to internal units:                        4.8032067991
Isothermal compressibility conversion factor:        0.0000000602

Energy conversion factors:
===========================================
From mdyne/A to kcal/mol/A^2:           143.933
From mdyne/A to kj/mol/A^2:             602.214
From mdyne/A to K/A^2:                  72429.7
From mdyne A/rad^2 to kcal/mol/deg^2:   0.0438444


Properties computed
===========================================================================
Movies: no
Radial Distribution Function: no
Number of molecules GCMC histogram: no
Histogram of the molecule positions: no
Free energy profiles: no
Pore Size Distribution Function: no
End-to-end distance: no
Histogram of the energy of the system: no
Compute thermodynamic factors: no
Framework spacing histograms: no
Residence times histograms: no
Distance histograms: no
Bend Angle histograms: no
Dihedral angle histograms: no
Angle between planes histograms: no
Molecule properties: no
Infra-red spectra: no
Mean-squared displacement using modified order-N algorithm: no
Velocity-autocorrelation function modified order-N algorithm: no
Rotational velocity-autocorrelation function modified order-N algorithm: no
Molecular orientation-autocorrelation function modified order-N algorithm: no
Bond orientation-autocorrelation function modified order-N algorithm: no
Mean-squared displacement (conventional algorithm): no
Velocity-autocorrelation function (conventional algorithm): no
3D density grid for adsorbates: no
Compute cation an/or adsorption sites: no
dcTST snapshots: no
Compute pressure and stress: yes


VTK
===========================================================================
VTK fractional-range position framework atoms: [-0.001000,1.001000] [-0.001000,1.001000] [-0.001000,1.001000]
VTK fractional-range position framework bonds: [-0.151000,1.151000] [-0.151000,1.151000] [-0.151000,1.151000]
VTK fractional-range com-position adsorbate molecules: [-0.101000,1.101000] [-0.101000,1.101000] [-0.101000,1.101000]
VTK fractional-range com-position cation molecules: [-0.101000,1.101000] [-0.101000,1.101000] [-0.101000,1.101000]
	3D free energy grid made for the full simulation-cell


Thermo/Baro-stat NHC parameters
===========================================================================
External temperature: 298 [K]
Beta: 0.00403598 [energy unit]
External Pressure: 1.8265e+07 [Pa]


Thermostat chain-length: 3
Timescale parameter for thermostat: 0.150000 [ps]
Barostat chain-length:   3
Timescale parameter for barostat:   0.150000 [ps]

Number of Yoshida-Suzuki decomposition steps: 5
Number of respa steps: 5


Method and settings for electrostatics
===============================================================================
Dielectric constant of the medium : 1.000000
Charge from charge-equilibration: no
Ewald summation is used (exact solution of a periodic system)
Relative precision                : 1e-06
Alpha convergence parameter       : 0.265058
kvec (x,y,z)                      : 8 8 8


CFC-RXMC parameters
===========================================================================
Number of reactions: 0


Rattle parameters
===========================================================================
Distance constraint type: r^2-r^2_0
Bend angle constraint type: theta-theta_0
Dihedral angle constraint type: phi-phi_0
Inversion-bend angle constraint type: chi-chi_0
Out-of-plane distance constraint type: r-r_0


Spectra parameters
===========================================================================
Compute normal modes: no


Minimization parameters
===========================================================================
Generalized coordinates are: Cartesian center-of-mass, elements of the orientational matrix p1,p2,p3 and strain
Potential derivatives are evaluated: analytically
Translation of the system is removed from the generalized Hessian: no
Rotation of the system is removed from the generalized Hessian: no
Maximum step-length: 0.3
Convergence factor: 1
Maximum number of minimization steps: 10000
Use gradients in the line-minimizations: yes
RMS gradient tolerance: 1e-06
Maximum gradient tolerance: 1e-06

Distance constraints: 0
Angle constraints: 0
Dihedral constraints: 0

Improper dihedral constraints: 0

Inversion-bend constraints: 0

Out-of-plane constraints: 0

Harmonic distance constraints: 0
Harmonic angle constraints: 0
Harmonic dihedral constraints: 0

Dihedral mid-point measurements: 0

All framework atoms are fixed

Fixed adsorbate atoms:  
Fixed adsorbate groups (center-of-mass):  
Fixed adsorbate groups (orientation):  

Fixed cation atoms:  
Fixed cation groups (center-of-mass):  
Fixed cation groups (orientation):  


dcTST parameters
===========================================================================
Free energy profiles computed: no
Free energy profiles written every 5000 cycles
Free energy mapping: mapped to a,b,c-coordinates
BarrierPosition:       0.0000000000       0.0000000000       0.0000000000
BarrierNormal:         0.0000000000       0.0000000000       0.0000000000
Start with a molecule on top of the barrier: no
Maximum distance to barrier (e.g. distance to minumum free energy):       0.0000000000 [A]
Maximum trajectory time:      10.0000000000 [ps]
Each configuration is used with 5 different initial velocities


Cbmc parameters
===========================================================================
Biasing method: using only the VDW part
Number of trial positions:                                       10
Number of trial positions (reinsertion):                         10
Number of trial positions (partial reinsertion):                 10
Number of trial positions (identity-change):                     10
Number of trial positions (Gibbs particle transfer):             10
Number of trial positions (insertion/deletion):                  10
Number of trial positions (Widom insertion):                     10
Number of trial positions coupled Torsion-selection:             100
Number of trial positions first bead:                            10
Number of trial positions first bead (reinsertion):              10
Number of trial positions first bead (partial reinsertion):      10
Number of trial positions first bead (identity-change):          10
Number of trial positions first bead (Gibbs particle transfer):  10
Number of trial positions first bead (insertion/deletion):       10
Number of trial positions first bead (Widom insertion):          10
Number of trial moves per open bead:                             150
Target acceptance ratio small-mc scheme:                         0.400000
Energy overlap criteria:                                         1e+07
Minimal Rosenbluth factor:                                       1e-150


Pseudo atoms: 14
===========================================================================
Pseudo Atom[   0] Name UNIT     Oxidation:          Element: H    pdb-name: H    Scat. Types:   1   1 Mass=1.000000000  B-factor:0.000   
                 Charge=1.000000000          Polarization=0.000000000  [A^3] (considered a charged atom and no polarization)  Interactions: yes
                 Anisotropic factor:    0.000 [-] (Absolute), Radius:    1.000 [A], Framework-atom:  no
Pseudo Atom[   1] Name He       Oxidation: +0       Element: He   pdb-name: He   Scat. Types:   3   2 Mass=4.002602000  B-factor:1.000   
                 Charge=0.000000000          Polarization=0.000000000  [A^3] (considered a chargeless atom and no polarization)  Interactions: yes
                 Anisotropic factor:    0.000 [-] (Relative), Radius:    1.000 [A], Framework-atom:  no
Pseudo Atom[   2] Name C_co2    Oxidation: +0       Element: C    pdb-name: C    Scat. Types:   7   6 Mass=12.000000000 B-factor:1.000   
                 Charge=0.651200000          Polarization=0.000000000  [A^3] (considered a charged atom and no polarization)  Interactions: yes
                 Anisotropic factor:    0.000 [-] (Relative), Radius:    0.720 [A], Framework-atom:  no
Pseudo Atom[   3] Name O_co2    Oxidation: +0       Element: O    pdb-name: O    Scat. Types:   9   8 Mass=15.999400000 B-factor:1.000   
                 Charge=-0.325600000         Polarization=0.000000000  [A^3] (considered a charged atom and no polarization)  Interactions: yes
                 Anisotropic factor:    0.000 [-] (Relative), Radius:    0.680 [A], Framework-atom:  no
Pseudo Atom[   4] Name O_o2     Oxidation: +0       Element: O    pdb-name: O    Scat. Types:   9   8 Mass=15.999400000 B-factor:1.000   
                 Charge=-0.112000000         Polarization=0.000000000  [A^3] (considered a charged atom and no polarization)  Interactions: yes
                 Anisotropic factor:    0.000 [-] (Relative), Radius:    0.700 [A], Framework-atom:  no
Pseudo Atom[   5] Name O_com    Oxidation: +0       Element: -    pdb-name: O    Scat. Types:   0   8 Mass=0.000000000  B-factor:1.000   
                 Charge=0.224000000          Polarization=0.000000000  [A^3] (considered a charged atom and no polarization)  Interactions: yes
                 Anisotropic factor:    0.000 [-] (Relative), Radius:    0.700 [A], Framework-atom:  no
Pseudo Atom[   6] Name N_n2     Oxidation: +0       Element: N    pdb-name: N    Scat. Types:   8   7 Mass=14.006740000 B-factor:1.000   
                 Charge=-0.405000000         Polarization=0.000000000  [A^3] (considered a charged atom and no polarization)  Interactions: yes
                 Anisotropic factor:    0.000 [-] (Relative), Radius:    0.700 [A], Framework-atom:  no
Pseudo Atom[   7] Name N_com    Oxidation: +0       Element: -    pdb-name: N    Scat. Types:   0   7 Mass=0.000000000  B-factor:1.000   
                 Charge=0.810000000          Polarization=0.000000000  [A^3] (considered a charged atom and no polarization)  Interactions: yes
                 Anisotropic factor:    0.000 [-] (Relative), Radius:    0.700 [A], Framework-atom:  no
Pseudo Atom[   8] Name Ar       Oxidation: +0       Element: Ar   pdb-name: Ar   Scat. Types:  19  18 Mass=39.948000000 B-factor:1.000   
                 Charge=0.000000000          Polarization=0.000000000  [A^3] (considered a chargeless atom and no polarization)  Interactions: yes
                 Anisotropic factor:    0.000 [-] (Relative), Radius:    0.700 [A], Framework-atom:  no
Pseudo Atom[   9] Name CH4      Oxidation: +0       Element: C    pdb-name: C    Scat. Types:   7   6 Mass=16.042460000 B-factor:1.000   
                 Charge=0.000000000          Polarization=0.000000000  [A^3] (considered a chargeless atom and no polarization)  Interactions: yes
                 Anisotropic factor:    0.000 [-] (Relative), Radius:    1.000 [A], Framework-atom:  no
Pseudo Atom[  10] Name CH3      Oxidation: +0       Element: C    pdb-name: C    Scat. Types:   7   6 Mass=15.034520000 B-factor:1.000   
                 Charge=0.000000000          Polarization=0.000000000  [A^3] (considered a chargeless atom and no polarization)  Interactions: yes
                 Anisotropic factor:    0.000 [-] (Relative), Radius:    1.000 [A], Framework-atom:  no
Pseudo Atom[  11] Name CH2      Oxidation: +0       Element: C    pdb-name: C    Scat. Types:   7   6 Mass=14.026580000 B-factor:1.000   
                 Charge=0.000000000          Polarization=0.000000000  [A^3] (considered a chargeless atom and no polarization)  Interactions: yes
                 Anisotropic factor:    0.000 [-] (Relative), Radius:    1.000 [A], Framework-atom:  no
Pseudo Atom[  12] Name CH       Oxidation: +0       Element: C    pdb-name: C    Scat. Types:   7   6 Mass=13.018640000 B-factor:1.000   
                 Charge=0.000000000          Polarization=0.000000000  [A^3] (considered a chargeless atom and no polarization)  Interactions: yes
                 Anisotropic factor:    0.000 [-] (Relative), Radius:    1.000 [A], Framework-atom:  no
Pseudo Atom[  13] Name C        Oxidation: +0       Element: C    pdb-name: C    Scat. Types:   7   6 Mass=12.000000000 B-factor:1.000   
                 Charge=0.000000000          Polarization=0.000000000  [A^3] (considered a chargeless atom and no polarization)  Interactions: yes
                 Anisotropic factor:    0.000 [-] (Relative), Radius:    1.000 [A], Framework-atom:  no


Forcefield: ExampleMoleculeForceField
===========================================================================
Minimal distance: 1
CutOff VDW : 12.000000 (144.000000)
CutOff VDW switching on: 10.800000 (116.640000)
CutOff charge-charge : 12.000000 (144.000000)
CutOff charge-charge switching on: 7.800000 (60.840000)
CutOff charge-bonddipole : 12.000000 (144.000000)
CutOff charge-bondipole switching on: 8.400000 (70.560000)
CutOff bonddipole-bonddipole : 12.000000 (144.000000)
CutOff bonddipole-bondipole switching on: 9.000000 (81.000000)
Polarization is neglected
All potentials are shifted to zero at the Cutoff

General mixing rule: Lorentz-Berthelot mixing rules are used FIRST for cross terms
0 cross terms are overwritten using the individual mixing rules from the file 'force_field_mixing_rules.def'
and then 0 terms are overwritten using the specific interactions from the file 'force_field.def'

The force field and all the interactions:
     He -      He [LENNARD_JONES] p_0/k_B:  10.90000 [K], p_1: 2.64000 [A], shift/k_B:  -0.00494280 [K], tailcorrection: no
     He -   C_co2 [LENNARD_JONES] p_0/k_B:  18.06294 [K], p_1: 2.69250 [A], shift/k_B:  -0.00921806 [K], tailcorrection: no
     He -   O_co2 [LENNARD_JONES] p_0/k_B:  30.55837 [K], p_1: 2.82850 [A], shift/k_B:  -0.02095875 [K], tailcorrection: no
     He -    O_o2 [LENNARD_JONES] p_0/k_B:  24.04061 [K], p_1: 2.84250 [A], shift/k_B:  -0.01698416 [K], tailcorrection: no
     He -   O_com [ZERO_POTENTIAL]
     He -    N_n2 [LENNARD_JONES] p_0/k_B:  20.43155 [K], p_1: 2.97300 [A], shift/k_B:  -0.01889482 [K], tailcorrection: no
     He -   N_com [ZERO_POTENTIAL]
     He -      Ar [LENNARD_JONES] p_0/k_B:  36.77449 [K], p_1: 3.01000 [A], shift/k_B:  -0.03662773 [K], tailcorrection: no
     He -     CH4 [LENNARD_JONES] p_0/k_B:  41.56501 [K], p_1: 3.18000 [A], shift/k_B:  -0.05755893 [K], tailcorrection: no
     He -     CH3 [LENNARD_JONES] p_0/k_B:  34.31035 [K], p_1: 3.20000 [A], shift/k_B:  -0.04933343 [K], tailcorrection: no
     He -     CH2 [LENNARD_JONES] p_0/k_B:  24.70627 [K], p_1: 3.30000 [A], shift/k_B:  -0.04272436 [K], tailcorrection: no
     He -      CH [LENNARD_JONES] p_0/k_B:  13.61249 [K], p_1: 3.65500 [A], shift/k_B:  -0.04343978 [K], tailcorrection: no
     He -       C [LENNARD_JONES] p_0/k_B:   2.95296 [K], p_1: 4.51000 [A], shift/k_B:  -0.03319436 [K], tailcorrection: no
  C_co2 -   C_co2 [LENNARD_JONES] p_0/k_B:  29.93300 [K], p_1: 2.74500 [A], shift/k_B:  -0.01715199 [K], tailcorrection: no
  C_co2 -   O_co2 [LENNARD_JONES] p_0/k_B:  50.63981 [K], p_1: 2.88100 [A], shift/k_B:  -0.03878296 [K], tailcorrection: no
  C_co2 -    O_o2 [LENNARD_JONES] p_0/k_B:  39.83889 [K], p_1: 2.89500 [A], shift/k_B:  -0.03141127 [K], tailcorrection: no
  C_co2 -   O_com [ZERO_POTENTIAL]
  C_co2 -    N_n2 [LENNARD_JONES] p_0/k_B:  33.85815 [K], p_1: 3.02550 [A], shift/k_B:  -0.03477820 [K], tailcorrection: no
  C_co2 -   N_com [ZERO_POTENTIAL]
  C_co2 -      Ar [LENNARD_JONES] p_0/k_B:  60.94085 [K], p_1: 3.06250 [A], shift/k_B:  -0.06733139 [K], tailcorrection: no
  C_co2 -     CH4 [LENNARD_JONES] p_0/k_B:  68.87946 [K], p_1: 3.23250 [A], shift/k_B:  -0.10522708 [K], tailcorrection: no
  C_co2 -     CH3 [LENNARD_JONES] p_0/k_B:  56.85740 [K], p_1: 3.25250 [A], shift/k_B:  -0.09013451 [K], tailcorrection: no
  C_co2 -     CH2 [LENNARD_JONES] p_0/k_B:  40.94201 [K], p_1: 3.35250 [A], shift/k_B:  -0.07783014 [K], tailcorrection: no
  C_co2 -      CH [LENNARD_JONES] p_0/k_B:  22.55795 [K], p_1: 3.70750 [A], shift/k_B:  -0.07841175 [K], tailcorrection: no
  C_co2 -       C [LENNARD_JONES] p_0/k_B:   4.89351 [K], p_1: 4.56250 [A], shift/k_B:  -0.05895165 [K], tailcorrection: no
  O_co2 -   O_co2 [LENNARD_JONES] p_0/k_B:  85.67100 [K], p_1: 3.01700 [A], shift/k_B:  -0.08652638 [K], tailcorrection: no
  O_co2 -    O_o2 [LENNARD_JONES] p_0/k_B:  67.39832 [K], p_1: 3.03100 [A], shift/k_B:  -0.06998813 [K], tailcorrection: no
  O_co2 -   O_com [ZERO_POTENTIAL]
  O_co2 -    N_n2 [LENNARD_JONES] p_0/k_B:  57.28026 [K], p_1: 3.16150 [A], shift/k_B:  -0.07659340 [K], tailcorrection: no
  O_co2 -   N_com [ZERO_POTENTIAL]
  O_co2 -      Ar [LENNARD_JONES] p_0/k_B: 103.09802 [K], p_1: 3.19850 [A], shift/k_B:  -0.14782408 [K], tailcorrection: no
  O_co2 -     CH4 [LENNARD_JONES] p_0/k_B: 116.52834 [K], p_1: 3.36850 [A], shift/k_B:  -0.22793491 [K], tailcorrection: no
  O_co2 -     CH3 [LENNARD_JONES] p_0/k_B:  96.18975 [K], p_1: 3.38850 [A], shift/k_B:  -0.19495125 [K], tailcorrection: no
  O_co2 -     CH2 [LENNARD_JONES] p_0/k_B:  69.26454 [K], p_1: 3.48850 [A], shift/k_B:  -0.16712968 [K], tailcorrection: no
  O_co2 -      CH [LENNARD_JONES] p_0/k_B:  38.16290 [K], p_1: 3.84350 [A], shift/k_B:  -0.16462890 [K], tailcorrection: no
  O_co2 -       C [LENNARD_JONES] p_0/k_B:   8.27870 [K], p_1: 4.69850 [A], shift/k_B:  -0.11888367 [K], tailcorrection: no
   O_o2 -    O_o2 [LENNARD_JONES] p_0/k_B:  53.02300 [K], p_1: 3.04500 [A], shift/k_B:  -0.05660368 [K], tailcorrection: no
   O_o2 -   O_com [ZERO_POTENTIAL]
   O_o2 -    N_n2 [LENNARD_JONES] p_0/k_B:  45.06301 [K], p_1: 3.17550 [A], shift/k_B:  -0.06187515 [K], tailcorrection: no
   O_o2 -   N_com [ZERO_POTENTIAL]
   O_o2 -      Ar [LENNARD_JONES] p_0/k_B:  81.10834 [K], p_1: 3.21250 [A], shift/k_B:  -0.11938149 [K], tailcorrection: no
   O_o2 -     CH4 [LENNARD_JONES] p_0/k_B:  91.67413 [K], p_1: 3.38250 [A], shift/k_B:  -0.18383502 [K], tailcorrection: no
   O_o2 -     CH3 [LENNARD_JONES] p_0/k_B:  75.67354 [K], p_1: 3.40250 [A], shift/k_B:  -0.15720980 [K], tailcorrection: no
   O_o2 -     CH2 [LENNARD_JONES] p_0/k_B:  54.49117 [K], p_1: 3.50250 [A], shift/k_B:  -0.13467871 [K], tailcorrection: no
   O_o2 -      CH [LENNARD_JONES] p_0/k_B:  30.02317 [K], p_1: 3.85750 [A], shift/k_B:  -0.13236868 [K], tailcorrection: no
   O_o2 -       C [LENNARD_JONES] p_0/k_B:   6.51294 [K], p_1: 4.71250 [A], shift/k_B:  -0.09520548 [K], tailcorrection: no
  O_com -   O_com [ZERO_POTENTIAL]
  O_com -    N_n2 [ZERO_POTENTIAL]
  O_com -   N_com [ZERO_POTENTIAL]
  O_com -      Ar [ZERO_POTENTIAL]
  O_com -     CH4 [ZERO_POTENTIAL]
  O_com -     CH3 [ZERO_POTENTIAL]
  O_com -     CH2 [ZERO_POTENTIAL]
  O_com -      CH [ZERO_POTENTIAL]
  O_com -       C [ZERO_POTENTIAL]
   N_n2 -    N_n2 [LENNARD_JONES] p_0/k_B:  38.29800 [K], p_1: 3.30600 [A], shift/k_B:  -0.06695388 [K], tailcorrection: no
   N_n2 -   N_com [ZERO_POTENTIAL]
   N_n2 -      Ar [LENNARD_JONES] p_0/k_B:  68.93209 [K], p_1: 3.34300 [A], shift/k_B:  -0.12882767 [K], tailcorrection: no
   N_n2 -     CH4 [LENNARD_JONES] p_0/k_B:  77.91170 [K], p_1: 3.51300 [A], shift/k_B:  -0.19605171 [K], tailcorrection: no
   N_n2 -     CH3 [LENNARD_JONES] p_0/k_B:  64.31317 [K], p_1: 3.53300 [A], shift/k_B:  -0.16743696 [K], tailcorrection: no
   N_n2 -     CH2 [LENNARD_JONES] p_0/k_B:  46.31078 [K], p_1: 3.63300 [A], shift/k_B:  -0.14253201 [K], tailcorrection: no
   N_n2 -      CH [LENNARD_JONES] p_0/k_B:  25.51599 [K], p_1: 3.98800 [A], shift/k_B:  -0.13731894 [K], tailcorrection: no
   N_n2 -       C [LENNARD_JONES] p_0/k_B:   5.53520 [K], p_1: 4.84300 [A], shift/k_B:  -0.09526024 [K], tailcorrection: no
  N_com -   N_com [ZERO_POTENTIAL]
  N_com -      Ar [ZERO_POTENTIAL]
  N_com -     CH4 [ZERO_POTENTIAL]
  N_com -     CH3 [ZERO_POTENTIAL]
  N_com -     CH2 [ZERO_POTENTIAL]
  N_com -      CH [ZERO_POTENTIAL]
  N_com -       C [ZERO_POTENTIAL]
     Ar -      Ar [LENNARD_JONES] p_0/k_B: 124.07000 [K], p_1: 3.38000 [A], shift/k_B:  -0.24769804 [K], tailcorrection: no
     Ar -     CH4 [LENNARD_JONES] p_0/k_B: 140.23229 [K], p_1: 3.55000 [A], shift/k_B:  -0.37575039 [K], tailcorrection: no
     Ar -     CH3 [LENNARD_JONES] p_0/k_B: 115.75647 [K], p_1: 3.57000 [A], shift/k_B:  -0.32079374 [K], tailcorrection: no
     Ar -     CH2 [LENNARD_JONES] p_0/k_B:  83.35418 [K], p_1: 3.67000 [A], shift/k_B:  -0.27260937 [K], tailcorrection: no
     Ar -      CH [LENNARD_JONES] p_0/k_B:  45.92592 [K], p_1: 4.02500 [A], shift/k_B:  -0.26122023 [K], tailcorrection: no
     Ar -       C [LENNARD_JONES] p_0/k_B:   9.96273 [K], p_1: 4.88000 [A], shift/k_B:  -0.17943247 [K], tailcorrection: no
    CH4 -     CH4 [LENNARD_JONES] p_0/k_B: 158.50000 [K], p_1: 3.72000 [A], shift/k_B:  -0.56217796 [K], tailcorrection: no
    CH4 -     CH3 [LENNARD_JONES] p_0/k_B: 130.83577 [K], p_1: 3.74000 [A], shift/k_B:  -0.47921501 [K], tailcorrection: no
    CH4 -     CH2 [LENNARD_JONES] p_0/k_B:  94.21253 [K], p_1: 3.84000 [A], shift/k_B:  -0.40420524 [K], tailcorrection: no
    CH4 -      CH [LENNARD_JONES] p_0/k_B:  51.90857 [K], p_1: 4.19500 [A], shift/k_B:  -0.37827707 [K], tailcorrection: no
    CH4 -       C [LENNARD_JONES] p_0/k_B:  11.26055 [K], p_1: 5.05000 [A], shift/k_B:  -0.24880626 [K], tailcorrection: no
    CH3 -     CH3 [LENNARD_JONES] p_0/k_B: 108.00000 [K], p_1: 3.76000 [A], shift/k_B:  -0.40842485 [K], tailcorrection: no
    CH3 -     CH2 [LENNARD_JONES] p_0/k_B:  77.76889 [K], p_1: 3.86000 [A], shift/k_B:  -0.34420794 [K], tailcorrection: no
    CH3 -      CH [LENNARD_JONES] p_0/k_B:  42.84857 [K], p_1: 4.21500 [A], shift/k_B:  -0.32127575 [K], tailcorrection: no
    CH3 -       C [LENNARD_JONES] p_0/k_B:   9.29516 [K], p_1: 5.07000 [A], shift/k_B:  -0.21028090 [K], tailcorrection: no
    CH2 -     CH2 [LENNARD_JONES] p_0/k_B:  56.00000 [K], p_1: 3.96000 [A], shift/k_B:  -0.28891522 [K], tailcorrection: no
    CH2 -      CH [LENNARD_JONES] p_0/k_B:  30.85450 [K], p_1: 4.31500 [A], shift/k_B:  -0.26621710 [K], tailcorrection: no
    CH2 -       C [LENNARD_JONES] p_0/k_B:   6.69328 [K], p_1: 5.17000 [A], shift/k_B:  -0.17012512 [K], tailcorrection: no
     CH -      CH [LENNARD_JONES] p_0/k_B:  17.00000 [K], p_1: 4.67000 [A], shift/k_B:  -0.23540268 [K], tailcorrection: no
     CH -       C [LENNARD_JONES] p_0/k_B:   3.68782 [K], p_1: 5.52500 [A], shift/k_B:  -0.13918063 [K], tailcorrection: no
      C -       C [LENNARD_JONES] p_0/k_B:   0.80000 [K], p_1: 6.38000 [A], shift/k_B:  -0.07064236 [K], tailcorrection: no


MoleculeDefinitions:
===========================================================================
Component 0 [hexane] (Adsorbate molecule)

	MoleculeDefinitions: ExampleDefinitions
	Component contains no atoms with charge
	Component contains no atoms with point dipoles (polarization)
	Component has a net charge of 0.000000

	Ideal chain Rosenbluth weight: 1
	Ideal chain total energy: 0.000000

	Critical temparure [K]: 507.820000
	Critical pressure [Pa]: 3034000.000000
	Acentric factor [-]: 0.299000

	RXMC partition factor ln(q/V) [ln(A^(-3))]:       0.0000000000

	Vapour=stable, Liquid=metastable

	MolFraction:           1.0000000000 [-]
	Compressibility:       0.0000000000 [-]

	Density of the bulk fluid phase:       0.0000000000 [kg/m^3]


	Amount of excess molecules:       0.0000000000 [-]

	Conversion factor molecules/unit cell -> mol/kg:                inf [-]
	Conversion factor molecules/unit cell -> mg/g:                inf [-]
	Conversion factor molecules/unit cell -> cm^3 STP/gr:                inf [-]
	Conversion factor molecules/unit cell -> cm^3 STP/cm^3:       1.3784916574 [-]
	Conversion factor mol/kg -> cm^3 STP/gr:      22.4139757476 [-]
	Conversion factor mol/kg -> cm^3 STP/cm^3:       0.0000000000 [-]

	Partial pressure: -16605402.00000000000000 [Pa]
	                    -124540.51499999999942 [Torr]
	                       -166.05402000000001 [bar]
	                       -163.88257586972614 [atm]

	Fugacity coefficient:      -1.0000000000 [-]

	Partial fugacity:  16605402.00000000000000 [Pa]
	                     124540.51499999999942 [Torr]
	                        166.05402000000001 [bar]
	                        163.88257586972614 [atm]

	Molecule contains 6 number of atoms
		atom:    0  is of type:   10 [       CH3] (group: 0)
		atom:    1  is of type:   11 [       CH2] (group: 0)
		atom:    2  is of type:   11 [       CH2] (group: 0)
		atom:    3  is of type:   11 [       CH2] (group: 0)
		atom:    4  is of type:   11 [       CH2] (group: 0)
		atom:    5  is of type:   10 [       CH3] (group: 0)

	Molecule contains 0 chirality centers

	Molecule contains 1 number of groups

		group: 0 containing: 6 elements
		-------------------------------------------------
		the group is modelled as flexible, i.e. no constraints
		Mass: 86.175360 [a.u.]
		Mass: 5.299910 [kg/m^3]

		Rotational Degrees of freedom: 0
		Diagonalized inertia vector:       0.0000000000
		                                   0.0000000000
		                                   0.0000000000
		element: 0 atom: 0 [       CH3] Charge:  0.000000 Anisotropy: 0.000000 Connectivity: 1 (1 )
		element: 1 atom: 1 [       CH2] Charge:  0.000000 Anisotropy: 0.000000 Connectivity: 2 (0 2 )
		element: 2 atom: 2 [       CH2] Charge:  0.000000 Anisotropy: 0.000000 Connectivity: 2 (1 3 )
		element: 3 atom: 3 [       CH2] Charge:  0.000000 Anisotropy: 0.000000 Connectivity: 2 (2 4 )
		element: 4 atom: 4 [       CH2] Charge:  0.000000 Anisotropy: 0.000000 Connectivity: 2 (3 5 )
		element: 5 atom: 5 [       CH3] Charge:  0.000000 Anisotropy: 0.000000 Connectivity: 1 (4 )

		Dipole:           0.0000000000 [D]
		Quadrupole:       0.0000000000       0.0000000000       0.0000000000 [D Angstrom]
		Quadrupole tensor [D Angstrom]
				       0.0000000000       0.0000000000       0.0000000000
				       0.0000000000       0.0000000000       0.0000000000
				       0.0000000000       0.0000000000       0.0000000000

	Starting bead for growth               : 0

	Degrees of freedom                     : 0
	Translational degrees of freedom       : 0
	Rotational degrees of freedom          : 0
	Vibrational degrees of freedom         : 0
	Constraint degrees of freedom          : 0

	Number of atoms                        : 6

	Number of constraint bonds             : 0
	Number of constraint bends             : 0
	Number of constraint inversion bends   : 0
	Number of constraint torsions          : 0
	Number of constraint improper torsions : 0
	Number of constraint improper torsions : 0

	Number of bonds                        : 5
	Number of Urey-Bradleys                : 0
	Number of bends                        : 4
	Number of inversion bends              : 0
	Number of torsions                     : 3
	Number of improper torsions            : 0
	Number of improper torsions            : 0

	Number of bond/bond cross terms        : 0
	Number of bond/bend cross terms        : 0
	Number of bend/bend cross terms        : 0
	Number of stretch/torsion cross terms  : 0
	Number of bend/torsion cross terms     : 0

	Number of charges                      : 0
	Number of bond-dipoles                 : 0

	Number of intra Van der Waals                             : 3
	Number of intra charge-charge Coulomb                     : 0
	Number of intra charge-bonddipole Coulomb                 : 0
	Number of intra bonddipole-bonddipole Coulomb             : 0

	Number of excluded intra charge-charge Coulomb                     : 0
	Number of excluded intra charge-bonddipole Coulomb                 : 0
	Number of excluded intra bonddipole-bonddipole Coulomb             : 0

	Number of cbmc-config moves                               : 8

	Particle Moves:             
		ProbabilityTranslationMove:                  32.258065
			TranslationDirection:      XYZ
		Percentage of random translation moves:            0.000000
		Percentage of rotation moves:                      32.258065
		Percentage of random rotation moves:               0.000000
		Percentage of partial reinsertion moves:           0.000000
		Percentage of reinsertion moves:                   32.258065
		Percentage of reinsertion-in-place moves:          0.000000
		Percentage of reinsertion-in-plane moves:          0.000000
		Percentage of identity-change moves:               0.000000
		Percentage of swap (insert/delete) moves:          0.000000
		Percentage of CF swap lambda moves:                0.000000
		Percentage of CB/CFMC swap lambda moves:           0.000000
		Percentage of Widom insertion moves:               0.000000
		Percentage of CF-Widom insertion moves:            0.000000
		Percentage of Gibbs Widom insertion moves:         0.000000
		Percentage of surface-area moves:                  0.000000
		Percentage of Gibbs particle-transfer moves:       0.000000
		Percentage of Gibbs identity-change moves:         0.000000
		Percentage of CF Gibbs lambda-transfer moves:      0.000000
		Percentage of CB/CFMC Gibbs lambda-transfer moves: 0.000000
		Percentage of exchange frac./int. particle moves:  0.000000
		Percentage of fractional mol. to other box moves:  0.000000
		Percentage of lambda-change moves:                 0.000000
		Percentage of fractional to integer moves:         0.000000

	System Moves:
		Percentage of parallel-tempering moves:            0.000000
		Percentage of hyper-parallel-tempering moves:      0.000000
		Percentage of parallel-mol-fraction moves:         0.000000
			   Component A: 0 B: 1
		Percentage of chiral inversion moves:              0.000000
		Percentage of Hybrid-NVE moves:                    0.000000
		Percentage of Hybrid-NPH moves:                    0.000000
		Percentage of Hybrid-NPHPR moves:                  0.000000
		Percentage of volume-change moves:                 3.225806
		Percentage of box-shape-change moves:              0.000000
		Percentage of Gibbs volume-change moves:           0.000000
		Percentage of framework-change moves:              0.000000
		Percentage of framework-shift moves:               0.000000
		Percentage of reactive MC moves:                   0.000000

	Moves are restricted: No
	No biased sampling used for this component

	Number of Bonds: 5
	--------------------------------------------
	Bond interaction 0: A=0 B=1 Type:HARMONIC_BOND
		HARMONIC_BOND: p_0/k_B=96500.000000 [K/A^2], p_1=1.540000   [A]
	Bond interaction 1: A=1 B=2 Type:HARMONIC_BOND
		HARMONIC_BOND: p_0/k_B=96500.000000 [K/A^2], p_1=1.540000   [A]
	Bond interaction 2: A=2 B=3 Type:HARMONIC_BOND
		HARMONIC_BOND: p_0/k_B=96500.000000 [K/A^2], p_1=1.540000   [A]
	Bond interaction 3: A=3 B=4 Type:HARMONIC_BOND
		HARMONIC_BOND: p_0/k_B=96500.000000 [K/A^2], p_1=1.540000   [A]
	Bond interaction 4: A=4 B=5 Type:HARMONIC_BOND
		HARMONIC_BOND: p_0/k_B=96500.000000 [K/A^2], p_1=1.540000   [A]

	Number of Bends: 4
	--------------------------------------------
	Bend interaction 0: A=0 B=1 C=2 Type:HARMONIC_BEND
		HARMONIC_BEND: p_0/k_B=62500.000000 [K/rad^2], p_1=114.000000 [degrees]
	Bend interaction 1: A=1 B=2 C=3 Type:HARMONIC_BEND
		HARMONIC_BEND: p_0/k_B=62500.000000 [K/rad^2], p_1=114.000000 [degrees]
	Bend interaction 2: A=2 B=3 C=4 Type:HARMONIC_BEND
		HARMONIC_BEND: p_0/k_B=62500.000000 [K/rad^2], p_1=114.000000 [degrees]
	Bend interaction 3: A=3 B=4 C=5 Type:HARMONIC_BEND
		HARMONIC_BEND: p_0/k_B=62500.000000 [K/rad^2], p_1=114.000000 [degrees]

	Number of Torsions: 3
	--------------------------------------------
	Torsions interaction 0: A=0 B=1 C=2 D=3 Type:TRAPPE_DIHEDRAL
		TRAPPE_DIHEDRAL: p_0/k_B=0.000000   [K], p_1/k_B=355.030000 [K], p_2/k_B=-68.190000 [K], p_3/k_B=791.320000 [K]
	Torsions interaction 1: A=1 B=2 C=3 D=4 Type:TRAPPE_DIHEDRAL
		TRAPPE_DIHEDRAL: p_0/k_B=0.000000   [K], p_1/k_B=355.030000 [K], p_2/k_B=-68.190000 [K], p_3/k_B=791.320000 [K]
	Torsions interaction 2: A=2 B=3 C=4 D=5 Type:TRAPPE_DIHEDRAL
		TRAPPE_DIHEDRAL: p_0/k_B=0.000000   [K], p_1/k_B=355.030000 [K], p_2/k_B=-68.190000 [K], p_3/k_B=791.320000 [K]

	number of intra VDW interactions: 3
	--------------------------------------------
	interaction 0: A=0 B=4  scaling factor: 1
	interaction 1: A=0 B=5  scaling factor: 1
	interaction 2: A=1 B=5  scaling factor: 1

	number of cbmc-config changes: 8
	--------------------------------------------
	nr fixed 4: 0 1 2 3 
	nr fixed 4: 5 4 3 2 
	nr fixed 3: 0 1 2 
	nr fixed 3: 5 4 3 
	nr fixed 2: 0 1 
	nr fixed 2: 5 4 
	nr fixed 1: 0 
	nr fixed 1: 5 

	number of identity-config changes: 1
	--------------------------------------------
	nr fixed 1: 0 

	Number of pockets blocked in a unitcell: 0
		Pockets are NOT blocked for this component



System Properties
===========================================================================
Unit cell size: 30.000000 30.000000 30.000000
Cell angles (radians)  alpha: 1.570796 beta: 1.570796 gamma: 1.570796
Cell angles (degrees)  alpha: 90.000000 beta: 90.000000 gamma: 90.000000
Number of unitcells [a]: 1
Number of unitcells [b]: 1
Number of unitcells [c]: 1

RECTANGULAR Boundary conditions: alpha=beta=gamma=90 degrees

Cartesian axis A is collinear with crystallographic axis a
Cartesian axis B is collinear with (axb)xA
Cartesian axis C is collinear with (axb)

lengths of cell vectors:
 30.00000  30.00000  30.00000
cosines of cell angles:
  0.00000   0.00000   0.00000
perpendicular cell widths:
 30.00000  30.00000  30.00000
volume of the cell: 27000.000000000000 (A^3)

Orthogonalization matrix Box
Transforms fractional coordinates abc into orthonormal Cartesian coordinates xyz
Deorthogonalization matrix InverseBox
Transforms orthonormal Cartesian coordinates xyz into fractional coordinates xyz

Box[0]:
	   30.000000000000     0.000000000000     0.000000000000
	    0.000000000000    30.000000000000     0.000000000000
	    0.000000000000     0.000000000000    30.000000000000

Inverse box[0]:
	    0.033333333333    -0.000000000000    -0.000000000000
	    0.000000000000     0.033333333333    -0.000000000000
	    0.000000000000     0.000000000000     0.033333333333


Unitcell box[0]:
	   30.000000000000     0.000000000000     0.000000000000
	    0.000000000000    30.000000000000     0.000000000000
	    0.000000000000     0.000000000000    30.000000000000

Unitcell inverse box[0]:
	    0.033333333333    -0.000000000000    -0.000000000000
	    0.000000000000     0.033333333333    -0.000000000000
	    0.000000000000     0.000000000000     0.033333333333

lengths of cell vectors (inverse box):
  0.03333   0.03333   0.03333
cosines of cell angles (inverse box):
 -0.00000  -0.00000  -0.00000
perpendicular cell widths (inverse):
  0.03333   0.03333   0.03333
volume of the cell: 27000.000000000000 (A^3)

No replicas are used
Framework is simulated as 'rigid'
Number of framework atoms: 0
Number of framework atoms in the unit cell: 0
Framework Mass:     0.000000000000 [g/mol]
Framework Density:     0.000000000000 [kg/m^3]                inf [cm^3/g]
Helium void fraction:    0.00000000
Available pore volume:    0.00000000 [A^3]           nan [cm^3/g]
Conversion factor from molecule/unit cell -> kmol/m^3: 0.0615014, kmol/m^3 accesible pore volume: inf

Number Of Frameworks (per system): 0
----------------------------------------------------------------------

Current Atom Status
===========================================================================
Number of framework atoms        : 0
Number of cations molecules      : 0
Number of adsorbate molecules    : 110
Component    0 :  110 molecules
Pseudo Atoms    0 [    UNIT]:    0 atoms
Pseudo Atoms    1 [      He]:    0 atoms
Pseudo Atoms    2 [   C_co2]:    0 atoms
Pseudo Atoms    3 [   O_co2]:    0 atoms
Pseudo Atoms    4 [    O_o2]:    0 atoms
Pseudo Atoms    5 [   O_com]:    0 atoms
Pseudo Atoms    6 [    N_n2]:    0 atoms
Pseudo Atoms    7 [   N_com]:    0 atoms
Pseudo Atoms    8 [      Ar]:    0 atoms
Pseudo Atoms    9 [     CH4]:    0 atoms
Pseudo Atoms   10 [     CH3]:  220 atoms
Pseudo Atoms   11 [     CH2]:  440 atoms
Pseudo Atoms   12 [      CH]:    0 atoms
Pseudo Atoms   13 [       C]:    0 atoms


Current (initial full energy) Energy Status
===========================================================================

Internal energy:
Host stretch energy:                                            0.00000000
Host UreyBradley energy:                                        0.00000000
Host bend energy:                                               0.00000000
Host inversion-bend energy:                                     0.00000000
Host torsion energy:                                            0.00000000
Host improper torsion energy:                                   0.00000000
Host out-of-plane energy:                                       0.00000000
Host stretch/stretch energy:                                    0.00000000
Host bend/bend energy:                                          0.00000000
Host stretch/bend energy:                                       0.00000000
Host stretch/torsion energy:                                    0.00000000
Host bend/torsion energy:                                       0.00000000

Adsorbate stretch energy:                                   89252.84807781
Adsorbate UreyBradley energy:                                   0.00000000
Adsorbate bend energy:                                      63548.65074221
Adsorbate inversion-bend energy:                                0.00000000
Adsorbate torsion energy:                                  114153.40114230
Adsorbate improper torsion energy:                              0.00000000
Adsorbate out-of-plane energy:                                  0.00000000
Adsorbate stretch/stretch energy:                               0.00000000
Adsorbate bend/bend energy:                                     0.00000000
Adsorbate stretch/bend energy:                                  0.00000000
Adsorbate stretch/torsion energy:                               0.00000000
Adsorbate bend/torsion energy:                                  0.00000000
Adsorbate intra VDW energy:                                 -9186.27523066
Adsorbate intra charge-charge Coulomb energy:                   0.00000000
Adsorbate intra charge-bonddipole Coulomb energy:               0.00000000
Adsorbate intra bonddipole-bonddipole Coulomb energy:           0.00000000

Cation stretch energy:                                          0.00000000
Cation UreyBradley energy:                                      0.00000000
Cation bend energy:                                             0.00000000
Cation inversion-bend energy:                                   0.00000000
Cation torsion energy:                                          0.00000000
Cation improper torsion energy:                                 0.00000000
Cation out-of-plane energy:                                     0.00000000
Cation stretch/stretch energy:                                  0.00000000
Cation bend/bend energy:                                        0.00000000
Cation stretch/bend energy:                                     0.00000000
Cation stretch/torsion energy:                                  0.00000000
Cation bend/torsion energy:                                     0.00000000
Cation intra VDW energy:                                        0.00000000
Cation intra charge-charge Coulomb energy:                      0.00000000
Cation intra charge-bonddipole Coulomb energy:                  0.00000000
Cation intra bonddipole-bonddipole Coulomb energy:              0.00000000

Host/Host energy:                                             0.00000000
	Host/Host VDW energy:                                         0.00000000
	Host/Host Coulomb energy:                                     0.00000000
	Host/Host charge-charge Real energy:                          0.00000000
	Host/Host charge-charge Fourier energy:                       0.00000000
	Host/Host charge-bonddipole Real energy:                      0.00000000
	Host/Host charge-bonddipole Fourier energy:                   0.00000000
	Host/Host bondipole-bonddipole Real energy:                   0.00000000
	Host/Host bondipole-bonddipole Fourier energy:                0.00000000

Host/Adsorbate energy:                                        0.00000000
	Host/Adsorbate VDW energy:                                    0.00000000
	Host/Adsorbate Coulomb energy:                                0.00000000
	Host/Adsorbate charge-charge Real energy:                     0.00000000
	Host/Adsorbate charge-charge Fourier energy:                  0.00000000
	Host/Adsorbate charge-bonddipole Real energy:                 0.00000000
	Host/Adsorbate charge-bonddipole Fourier energy:              0.00000000
	Host/Adsorbate bondipole-bonddipole Real energy:              0.00000000
	Host/Adsorbate bondipole-bonddipole Fourier energy:           0.00000000

Host/Cation energy:                                           0.00000000
	Host/Cation VDW energy:                                       0.00000000
	Host/Cation Coulomb energy:                                   0.00000000
	Host/Cation charge-charge Real energy:                        0.00000000
	Host/Cation charge-charge Fourier energy:                     0.00000000
	Host/Cation charge-bonddipole Real energy:                    0.00000000
	Host/Cation charge-bonddipole Fourier energy:                 0.00000000
	Host/Cation bondipole-bonddipole Real energy:                 0.00000000
	Host/Cation bondipole-bonddipole Fourier energy:              0.00000000

Adsorbate/Adsorbate energy:                                   216425.72269713
	Adsorbate/Adsorbate VDW energy:                               216425.72269713
	Adsorbate/Adsorbate Coulomb energy:                                0.00000000
	Adsorbate/Adsorbate charge-charge Real energy:                     0.00000000
	Adsorbate/Adsorbate charge-charge Fourier energy:                  0.00000000
	Adsorbate/Adsorbate charge-bonddipole Real energy:                 0.00000000
	Adsorbate/Adsorbate charge-bonddipole Fourier energy:              0.00000000
	Adsorbate/Adsorbate bondipole-bonddipole Real energy:              0.00000000
	Adsorbate/Adsorbate bondipole-bonddipole Fourier energy:           0.00000000

Adsorbate/Cation energy:                                           0.00000000
	Adsorbate/Cation VDW energy:                                       0.00000000
	Adsorbate/Cation Coulomb energy:                                   0.00000000
	Adsorbate/Cation charge-charge Real energy:                        0.00000000
	Adsorbate/Cation charge-charge Fourier energy:                     0.00000000
	Adsorbate/Cation charge-bonddipole Real energy:                    0.00000000
	Adsorbate/Cation charge-bonddipole Fourier energy:                 0.00000000
	Adsorbate/Cation bondipole-bonddipole Real energy:                 0.00000000
	Adsorbate/Cation bondipole-bonddipole Fourier energy:              0.00000000

Cation/Cation energy:                                           0.00000000
	Cation/Cation VDW energy:                                       0.00000000
	Cation/Cation Coulomb energy:                                   0.00000000
	Cation/Cation charge-charge Real energy:                        0.00000000
	Cation/Cation charge-charge Fourier energy:                     0.00000000
	Cation/Cation charge-bonddipole Real energy:                    0.00000000
	Cation/Cation charge-bonddipole Fourier energy:                 0.00000000
	Cation/Cation bondipole-bonddipole Real energy:                 0.00000000
	Cation/Cation bondipole-bonddipole Fourier energy:              0.00000000

Polarization energy:
	Host polarization energy:                                     0.00000000
	Adsorbate polarization energy:                                0.00000000
	Cation polarization energy:                                   0.00000000
	Host back-polarization energy:                                     0.00000000
	Adsorbate back-polarization energy:                                0.00000000
	Cation back-polarization energy:                                   0.00000000

Tail-correction energy:                                       0.00000000

Distance constraints energy:                                  0.00000000
Angle constraints energy:                                     0.00000000
Dihedral constraints energy:                                  0.00000000
Inversion-bend constraints energy:                            0.00000000
Out-of-plane distance constraints energy:                     0.00000000
Exclusion constraints energy:                                 0.00000000

===================================================================
Total energy: 474194.347428785055
	Total Van der Waals: 216425.722697
	Total Coulomb: 0.000000

	Total Polarization: 0.000000







+++++++++++++++++++++++++++++++++++++++++++++++++++++++++++++++++++++++++
Starting simulation
+++++++++++++++++++++++++++++++++++++++++++++++++++++++++++++++++++++++++

[Init] Current cycle: 0 out of 1000
========================================================================================================

Net charge: 0 (F: 0, A: 0, C: 0)
Current Box:  30.00000   0.00000   0.00000 [A]
               0.00000  30.00000   0.00000 [A]
               0.00000   0.00000  30.00000 [A]
Box-lengths:  30.00000  30.00000  30.00000 Box-angles:   90.00000  90.00000  90.00000 [degrees]
Volume: 27000.00000 [A^3]

Amount of molecules per component:
----------------------------------------------------------------------------------------------------------------------------------------------------
Component 0 (hexane), current number of integer/fractional/reaction molecules: 110/0/0, density: 582.99042 [kg/m^3]
----------------------------------------------------------------------------------------------------------------------------------------------------
Degrees of freedom: 1980 0 1980 0
Number of Framework-atoms:      0
Number of Adsorbates:         110 (110 integer, 0 fractional, 0 reaction)
Number of Cations:              0 (0 integer, 0 fractional, 0 reaction

Current total potential energy:            474194.3474287851 [K]
	Current Host-Host energy:                     0.0000000000 [K]
	Current Host-Adsorbate energy:                0.0000000000 [K]
	Current Host-Cation energy:                   0.0000000000 [K]
	Current Adsorbate-Adsorbate energy:      216425.7226971286 [K]
	Current Cation-Cation energy:                 0.0000000000 [K]
	Current Adsorbate-Cation energy:              0.0000000000 [K]



[Init] Current cycle: 100 out of 1000
========================================================================================================

Net charge: 0 (F: 0, A: 0, C: 0)
Current Box:  30.01349   0.00000   0.00000 [A]
               0.00000  30.01349   0.00000 [A]
               0.00000   0.00000  30.01349 [A]
Box-lengths:  30.01349  30.01349  30.01349 Box-angles:   90.00000  90.00000  90.00000 [degrees]
Volume: 27036.44417 [A^3]

Amount of molecules per component:
----------------------------------------------------------------------------------------------------------------------------------------------------
Component 0 (hexane), current number of integer/fractional/reaction molecules: 110/0/0, density: 582.20457 [kg/m^3]
----------------------------------------------------------------------------------------------------------------------------------------------------
Degrees of freedom: 1980 0 1980 0
Number of Framework-atoms:      0
Number of Adsorbates:         110 (110 integer, 0 fractional, 0 reaction)
Number of Cations:              0 (0 integer, 0 fractional, 0 reaction

Current total potential energy:            -83703.2302174310 [K]
	Current Host-Host energy:                     0.0000000000 [K]
	Current Host-Adsorbate energy:                0.0000000000 [K]
	Current Host-Cation energy:                   0.0000000000 [K]
	Current Adsorbate-Adsorbate energy:     -315591.6763924060 [K]
	Current Cation-Cation energy:                 0.0000000000 [K]
	Current Adsorbate-Cation energy:              0.0000000000 [K]



[Init] Current cycle: 200 out of 1000
========================================================================================================

Net charge: 0 (F: 0, A: 0, C: 0)
Current Box:  29.95330   0.00000   0.00000 [A]
               0.00000  29.95330   0.00000 [A]
               0.00000   0.00000  29.95330 [A]
Box-lengths:  29.95330  29.95330  29.95330 Box-angles:   90.00000  90.00000  90.00000 [degrees]
Volume: 26874.11065 [A^3]

Amount of molecules per component:
----------------------------------------------------------------------------------------------------------------------------------------------------
Component 0 (hexane), current number of integer/fractional/reaction molecules: 110/0/0, density: 585.72139 [kg/m^3]
----------------------------------------------------------------------------------------------------------------------------------------------------
Degrees of freedom: 1980 0 1980 0
Number of Framework-atoms:      0
Number of Adsorbates:         110 (110 integer, 0 fractional, 0 reaction)
Number of Cations:              0 (0 integer, 0 fractional, 0 reaction

Current total potential energy:           -100051.8697458575 [K]
	Current Host-Host energy:                     0.0000000000 [K]
	Current Host-Adsorbate energy:                0.0000000000 [K]
	Current Host-Cation energy:                   0.0000000000 [K]
	Current Adsorbate-Adsorbate energy:     -323470.8385170482 [K]
	Current Cation-Cation energy:                 0.0000000000 [K]
	Current Adsorbate-Cation energy:              0.0000000000 [K]



[Init] Current cycle: 300 out of 1000
========================================================================================================

Net charge: 0 (F: 0, A: 0, C: 0)
Current Box:  29.66399   0.00000   0.00000 [A]
               0.00000  29.66399   0.00000 [A]
               0.00000   0.00000  29.66399 [A]
Box-lengths:  29.66399  29.66399  29.66399 Box-angles:   90.00000  90.00000  90.00000 [degrees]
Volume: 26102.89004 [A^3]

Amount of molecules per component:
----------------------------------------------------------------------------------------------------------------------------------------------------
Component 0 (hexane), current number of integer/fractional/reaction molecules: 110/0/0, density: 603.02677 [kg/m^3]
----------------------------------------------------------------------------------------------------------------------------------------------------
Degrees of freedom: 1980 0 1980 0
Number of Framework-atoms:      0
Number of Adsorbates:         110 (110 integer, 0 fractional, 0 reaction)
Number of Cations:              0 (0 integer, 0 fractional, 0 reaction

Current total potential energy:           -111819.2446239148 [K]
	Current Host-Host energy:                     0.0000000000 [K]
	Current Host-Adsorbate energy:                0.0000000000 [K]
	Current Host-Cation energy:                   0.0000000000 [K]
	Current Adsorbate-Adsorbate energy:     -331727.4296389947 [K]
	Current Cation-Cation energy:                 0.0000000000 [K]
	Current Adsorbate-Cation energy:              0.0000000000 [K]



[Init] Current cycle: 400 out of 1000
========================================================================================================

Net charge: 0 (F: 0, A: 0, C: 0)
Current Box:  29.23311   0.00000   0.00000 [A]
               0.00000  29.23311   0.00000 [A]
               0.00000   0.00000  29.23311 [A]
Box-lengths:  29.23311  29.23311  29.23311 Box-angles:   90.00000  90.00000  90.00000 [degrees]
Volume: 24981.88267 [A^3]

Amount of molecules per component:
----------------------------------------------------------------------------------------------------------------------------------------------------
Component 0 (hexane), current number of integer/fractional/reaction molecules: 110/0/0, density: 630.08628 [kg/m^3]
----------------------------------------------------------------------------------------------------------------------------------------------------
Degrees of freedom: 1980 0 1980 0
Number of Framework-atoms:      0
Number of Adsorbates:         110 (110 integer, 0 fractional, 0 reaction)
Number of Cations:              0 (0 integer, 0 fractional, 0 reaction

Current total potential energy:           -133419.2885533244 [K]
	Current Host-Host energy:                     0.0000000000 [K]
	Current Host-Adsorbate energy:                0.0000000000 [K]
	Current Host-Cation energy:                   0.0000000000 [K]
	Current Adsorbate-Adsorbate energy:     -356123.0457470519 [K]
	Current Cation-Cation energy:                 0.0000000000 [K]
	Current Adsorbate-Cation energy:              0.0000000000 [K]



[Init] Current cycle: 500 out of 1000
========================================================================================================

Net charge: 0 (F: 0, A: 0, C: 0)
Current Box:  28.89246   0.00000   0.00000 [A]
               0.00000  28.89246   0.00000 [A]
               0.00000   0.00000  28.89246 [A]
Box-lengths:  28.89246  28.89246  28.89246 Box-angles:   90.00000  90.00000  90.00000 [degrees]
Volume: 24118.68227 [A^3]

Amount of molecules per component:
----------------------------------------------------------------------------------------------------------------------------------------------------
Component 0 (hexane), current number of integer/fractional/reaction molecules: 110/0/0, density: 652.63688 [kg/m^3]
----------------------------------------------------------------------------------------------------------------------------------------------------
Degrees of freedom: 1980 0 1980 0
Number of Framework-atoms:      0
Number of Adsorbates:         110 (110 integer, 0 fractional, 0 reaction)
Number of Cations:              0 (0 integer, 0 fractional, 0 reaction

Current total potential energy:           -146680.0283251111 [K]
	Current Host-Host energy:                     0.0000000000 [K]
	Current Host-Adsorbate energy:                0.0000000000 [K]
	Current Host-Cation energy:                   0.0000000000 [K]
	Current Adsorbate-Adsorbate energy:     -365037.9327725357 [K]
	Current Cation-Cation energy:                 0.0000000000 [K]
	Current Adsorbate-Cation energy:              0.0000000000 [K]



[Init] Current cycle: 600 out of 1000
========================================================================================================

Net charge: 0 (F: 0, A: 0, C: 0)
Current Box:  28.80019   0.00000   0.00000 [A]
               0.00000  28.80019   0.00000 [A]
               0.00000   0.00000  28.80019 [A]
Box-lengths:  28.80019  28.80019  28.80019 Box-angles:   90.00000  90.00000  90.00000 [degrees]
Volume: 23888.35333 [A^3]

Amount of molecules per component:
----------------------------------------------------------------------------------------------------------------------------------------------------
Component 0 (hexane), current number of integer/fractional/reaction molecules: 110/0/0, density: 658.92953 [kg/m^3]
----------------------------------------------------------------------------------------------------------------------------------------------------
Degrees of freedom: 1980 0 1980 0
Number of Framework-atoms:      0
Number of Adsorbates:         110 (110 integer, 0 fractional, 0 reaction)
Number of Cations:              0 (0 integer, 0 fractional, 0 reaction

Current total potential energy:           -153945.3714872668 [K]
	Current Host-Host energy:                     0.0000000000 [K]
	Current Host-Adsorbate energy:                0.0000000000 [K]
	Current Host-Cation energy:                   0.0000000000 [K]
	Current Adsorbate-Adsorbate energy:     -373127.9729484036 [K]
	Current Cation-Cation energy:                 0.0000000000 [K]
	Current Adsorbate-Cation energy:              0.0000000000 [K]



[Init] Current cycle: 700 out of 1000
========================================================================================================

Net charge: 0 (F: 0, A: 0, C: 0)
Current Box:  28.75250   0.00000   0.00000 [A]
               0.00000  28.75250   0.00000 [A]
               0.00000   0.00000  28.75250 [A]
Box-lengths:  28.75250  28.75250  28.75250 Box-angles:   90.00000  90.00000  90.00000 [degrees]
Volume: 23769.87793 [A^3]

Amount of molecules per component:
----------------------------------------------------------------------------------------------------------------------------------------------------
Component 0 (hexane), current number of integer/fractional/reaction molecules: 110/0/0, density: 662.21381 [kg/m^3]
----------------------------------------------------------------------------------------------------------------------------------------------------
Degrees of freedom: 1980 0 1980 0
Number of Framework-atoms:      0
Number of Adsorbates:         110 (110 integer, 0 fractional, 0 reaction)
Number of Cations:              0 (0 integer, 0 fractional, 0 reaction

Current total potential energy:           -158399.1804523706 [K]
	Current Host-Host energy:                     0.0000000000 [K]
	Current Host-Adsorbate energy:                0.0000000000 [K]
	Current Host-Cation energy:                   0.0000000000 [K]
	Current Adsorbate-Adsorbate energy:     -376391.9412057077 [K]
	Current Cation-Cation energy:                 0.0000000000 [K]
	Current Adsorbate-Cation energy:              0.0000000000 [K]



[Init] Current cycle: 800 out of 1000
========================================================================================================

Net charge: 0 (F: 0, A: 0, C: 0)
Current Box:  28.74208   0.00000   0.00000 [A]
               0.00000  28.74208   0.00000 [A]
               0.00000   0.00000  28.74208 [A]
Box-lengths:  28.74208  28.74208  28.74208 Box-angles:   90.00000  90.00000  90.00000 [degrees]
Volume: 23744.03861 [A^3]

Amount of molecules per component:
----------------------------------------------------------------------------------------------------------------------------------------------------
Component 0 (hexane), current number of integer/fractional/reaction molecules: 110/0/0, density: 662.93446 [kg/m^3]
----------------------------------------------------------------------------------------------------------------------------------------------------
Degrees of freedom: 1980 0 1980 0
Number of Framework-atoms:      0
Number of Adsorbates:         110 (110 integer, 0 fractional, 0 reaction)
Number of Cations:              0 (0 integer, 0 fractional, 0 reaction

Current total potential energy:           -153124.3877777554 [K]
	Current Host-Host energy:                     0.0000000000 [K]
	Current Host-Adsorbate energy:                0.0000000000 [K]
	Current Host-Cation energy:                   0.0000000000 [K]
	Current Adsorbate-Adsorbate energy:     -372311.9527842849 [K]
	Current Cation-Cation energy:                 0.0000000000 [K]
	Current Adsorbate-Cation energy:              0.0000000000 [K]



[Init] Current cycle: 900 out of 1000
========================================================================================================

Net charge: 0 (F: 0, A: 0, C: 0)
Current Box:  28.73672   0.00000   0.00000 [A]
               0.00000  28.73672   0.00000 [A]
               0.00000   0.00000  28.73672 [A]
Box-lengths:  28.73672  28.73672  28.73672 Box-angles:   90.00000  90.00000  90.00000 [degrees]
Volume: 23730.74579 [A^3]

Amount of molecules per component:
----------------------------------------------------------------------------------------------------------------------------------------------------
Component 0 (hexane), current number of integer/fractional/reaction molecules: 110/0/0, density: 663.30581 [kg/m^3]
----------------------------------------------------------------------------------------------------------------------------------------------------
Degrees of freedom: 1980 0 1980 0
Number of Framework-atoms:      0
Number of Adsorbates:         110 (110 integer, 0 fractional, 0 reaction)
Number of Cations:              0 (0 integer, 0 fractional, 0 reaction

Current total potential energy:           -156557.9904014866 [K]
	Current Host-Host energy:                     0.0000000000 [K]
	Current Host-Adsorbate energy:                0.0000000000 [K]
	Current Host-Cation energy:                   0.0000000000 [K]
	Current Adsorbate-Adsorbate energy:     -375709.9917934154 [K]
	Current Cation-Cation energy:                 0.0000000000 [K]
	Current Adsorbate-Cation energy:              0.0000000000 [K]



Average Properties at Current cycle: 0 out of 5000
========================================================================================

Framework surface area:                nan [m^2/g]        0.0000000000 [m^2/cm^3]       0.0000000000 [A^2]
	Cation surface area:                                nan [m^2/g]        0.0000000000 [m^2/cm^3]       0.0000000000 [A^2]
Compressibility:       1.0954653408 [-]
Henry coefficients
	Component 0: 0 [mol/kg/Pa] (Rosenbluth factor new: 0 [-])
Energy <U_gh>_1-<U_h>_0 from Widom


Current cycle: 0 out of 5000
========================================================================================================

Net charge: 0 (F: 0, A: 0, C: 0)
Current Box:  28.53749   0.00000   0.00000 [A]   Average Box:  28.53749   0.00000   0.00000 [A]
               0.00000  28.53749   0.00000 [A]                  0.00000  28.53749   0.00000 [A]
               0.00000   0.00000  28.53749 [A]                  0.00000   0.00000  28.53749 [A]
Box-lengths:   28.53749  28.53749  28.53749 [A] Average:  28.53749  28.53749  28.53749 [A]
Box-angles:   90.00000  90.00000  90.00000 [degrees] Average:  90.00000  90.00000  90.00000 [degrees]
Volume: 23240.58867 [A^3] Average Volume: 23240.58867 [A^3]

Current Stress:  24.91561   9.46490   5.11723 [MPa]   Average Stress: 24915.60561 9464.89589 5117.23025 [kPa]
                  9.46490  28.94862   0.47854 [MPa]                   9464.89589 28948.61860 478.53961 [kPa]
                  5.11723   0.47854  10.13363 [MPa]                   5117.23025 478.53961 10133.63112 [kPa]
Average pressure:   21332.6184429542 [kPa]     210.5365748133 [atm]     213.3261844295 [bar]
	Ideal gas part:     19473.5676691050 [kPa]     192.1891701861 [atm]     194.7356766910 [bar]
	excess part:         1859.0507738492 [kPa]      18.3474046272 [atm]      18.5905077385 [bar]
	tail correction:       0.0000000000 [kPa]       0.0000000000 [atm]       0.0000000000 [bar]

Amount of molecules per component:
----------------------------------------------------------------------------------------------------------------------------------------------------
Component 0 (hexane), current number of integer/fractional/reaction molecules: 110/0/0 (average 110.00000/  0.00000), density: 677.29530 (average 677.29530) kg/m^3]
----------------------------------------------------------------------------------------------------------------------------------------------------
Degrees of freedom: 1980 0 1980 0
Number of Framework-atoms:      0
Number of Adsorbates:         110 (110 integer, 0 fractional, 0 reaction)
Number of Cations:              0 (0 integer, 0 fractional, 0 reaction)

Current total potential energy:           -164860.7157213074 [K]  (avg.     -164860.7157213074)
	Current Host-Host energy:                     0.0000000000 [K]  (avg.           0.0000000000)
	Current Host-Adsorbate energy:                0.0000000000 [K]  (avg.           0.0000000000)
	Current Host-Cation energy:                   0.0000000000 [K]  (avg.           0.0000000000)
	Current Adsorbate-Adsorbate energy:     -385382.6407023817 [K]  (avg.     -385382.6407023817)
	Current Cation-Cation energy:                 0.0000000000 [K]  (avg.           0.0000000000)
	Current Adsorbate-Cation energy:              0.0000000000 [K]  (avg.           0.0000000000)



Current cycle: 100 out of 5000
========================================================================================================

Net charge: 0 (F: 0, A: 0, C: 0)
Current Box:  28.65940   0.00000   0.00000 [A]   Average Box:  28.57087   0.00000   0.00000 [A]
               0.00000  28.65940   0.00000 [A]                  0.00000  28.57087   0.00000 [A]
               0.00000   0.00000  28.65940 [A]                  0.00000   0.00000  28.57087 [A]
Box-lengths:   28.65940  28.65940  28.65940 [A] Average:  28.57087  28.57087  28.57087 [A]
Box-angles:   90.00000  90.00000  90.00000 [degrees] Average:  90.00000  90.00000  90.00000 [degrees]
Volume: 23539.71456 [A^3] Average Volume: 23322.55910 [A^3]

Current Stress:  49.08577 -37.26084  -3.91209 [MPa]   Average Stress: 22718.72148 -5619.31965 7253.93205 [kPa]
                -37.26084   7.77725  -5.80856 [MPa]                   -5619.31965 17004.10770 -6620.73349 [kPa]
                 -3.91209  -5.80856   4.00258 [MPa]                   7253.93205 -6620.73349 12159.78415 [kPa]
Average pressure:   17294.2044451361 [kPa]     170.6805274625 [atm]     172.9420444514 [bar]
	Ideal gas part:     19405.9281745885 [kPa]     191.5216202772 [atm]     194.0592817459 [bar]
	excess part:        -2111.7237294525 [kPa]     -20.8410928147 [atm]     -21.1172372945 [bar]
	tail correction:       0.0000000000 [kPa]       0.0000000000 [atm]       0.0000000000 [bar]

Amount of molecules per component:
----------------------------------------------------------------------------------------------------------------------------------------------------
Component 0 (hexane), current number of integer/fractional/reaction molecules: 110/0/0 (average 110.00000/  0.00000), density: 668.68871 (average 674.94278) kg/m^3]
----------------------------------------------------------------------------------------------------------------------------------------------------
Degrees of freedom: 1980 0 1980 0
Number of Framework-atoms:      0
Number of Adsorbates:         110 (110 integer, 0 fractional, 0 reaction)
Number of Cations:              0 (0 integer, 0 fractional, 0 reaction)

Current total potential energy:           -160424.4685427908 [K]  (avg.     -163341.1345572245)
	Current Host-Host energy:                     0.0000000000 [K]  (avg.           0.0000000000)
	Current Host-Adsorbate energy:                0.0000000000 [K]  (avg.           0.0000000000)
	Current Host-Cation energy:                   0.0000000000 [K]  (avg.           0.0000000000)
	Current Adsorbate-Adsorbate energy:     -380182.2797362892 [K]  (avg.     -384092.5166821372)
	Current Cation-Cation energy:                 0.0000000000 [K]  (avg.           0.0000000000)
	Current Adsorbate-Cation energy:              0.0000000000 [K]  (avg.           0.0000000000)



Current cycle: 200 out of 5000
========================================================================================================

Net charge: 0 (F: 0, A: 0, C: 0)
Current Box:  28.68162   0.00000   0.00000 [A]   Average Box:  28.58769   0.00000   0.00000 [A]
               0.00000  28.68162   0.00000 [A]                  0.00000  28.58769   0.00000 [A]
               0.00000   0.00000  28.68162 [A]                  0.00000   0.00000  28.58769 [A]
Box-lengths:   28.68162  28.68162  28.68162 [A] Average:  28.58769  28.58769  28.58769 [A]
Box-angles:   90.00000  90.00000  90.00000 [degrees] Average:  90.00000  90.00000  90.00000 [degrees]
Volume: 23594.51596 [A^3] Average Volume: 23363.78194 [A^3]

Current Stress:  52.28162  14.07243   2.47390 [MPa]   Average Stress: 31870.25959 -4803.70268 11276.47575 [kPa]
                 14.07243 -15.49977  16.68025 [MPa]                   -4803.70268 7659.54397 -4574.57546 [kPa]
                  2.47390  16.68025  11.14285 [MPa]                   11276.47575 -4574.57546 18157.21014 [kPa]
Average pressure:   19229.0045641706 [kPa]     189.7755200017 [atm]     192.2900456417 [bar]
	Ideal gas part:     19371.6976796375 [kPa]     191.1837915582 [atm]     193.7169767964 [bar]
	excess part:         -142.6931154669 [kPa]      -1.4082715565 [atm]      -1.4269311547 [bar]
	tail correction:       0.0000000000 [kPa]       0.0000000000 [atm]       0.0000000000 [bar]

Amount of molecules per component:
----------------------------------------------------------------------------------------------------------------------------------------------------
Component 0 (hexane), current number of integer/fractional/reaction molecules: 110/0/0 (average 110.00000/  0.00000), density: 667.13560 (average 673.75224) kg/m^3]
----------------------------------------------------------------------------------------------------------------------------------------------------
Degrees of freedom: 1980 0 1980 0
Number of Framework-atoms:      0
Number of Adsorbates:         110 (110 integer, 0 fractional, 0 reaction)
Number of Cations:              0 (0 integer, 0 fractional, 0 reaction)

Current total potential energy:           -160185.4825501756 [K]  (avg.     -162360.5705294555)
	Current Host-Host energy:                     0.0000000000 [K]  (avg.           0.0000000000)
	Current Host-Adsorbate energy:                0.0000000000 [K]  (avg.           0.0000000000)
	Current Host-Cation energy:                   0.0000000000 [K]  (avg.           0.0000000000)
	Current Adsorbate-Adsorbate energy:     -379943.2937436734 [K]  (avg.     -382617.6387581421)
	Current Cation-Cation energy:                 0.0000000000 [K]  (avg.           0.0000000000)
	Current Adsorbate-Cation energy:              0.0000000000 [K]  (avg.           0.0000000000)



Current cycle: 300 out of 5000
========================================================================================================

Net charge: 0 (F: 0, A: 0, C: 0)
Current Box:  28.73974   0.00000   0.00000 [A]   Average Box:  28.60070   0.00000   0.00000 [A]
               0.00000  28.73974   0.00000 [A]                  0.00000  28.60070   0.00000 [A]
               0.00000   0.00000  28.73974 [A]                  0.00000   0.00000  28.60070 [A]
Box-lengths:   28.73974  28.73974  28.73974 [A] Average:  28.60070  28.60070  28.60070 [A]
Box-angles:   90.00000  90.00000  90.00000 [degrees] Average:  90.00000  90.00000  90.00000 [degrees]
Volume: 23738.24829 [A^3] Average Volume: 23395.80212 [A^3]

Current Stress: -44.77603  14.97514  18.23999 [MPa]   Average Stress: 27470.12730 -1272.90416 6732.06761 [kPa]
                 14.97514  22.40794   3.86862 [MPa]                   -1272.90416 7156.56995 -725.14510 [kPa]
                 18.23999   3.86862  11.01555 [MPa]                   6732.06761 -725.14510 22283.98341 [kPa]
Average pressure:   18970.2268854897 [kPa]     187.2215828817 [atm]     189.7022688549 [bar]
	Ideal gas part:     19345.4381873576 [kPa]     190.9246305192 [atm]     193.4543818736 [bar]
	excess part:         -375.2113018680 [kPa]      -3.7030476375 [atm]      -3.7521130187 [bar]
	tail correction:       0.0000000000 [kPa]       0.0000000000 [atm]       0.0000000000 [bar]

Amount of molecules per component:
----------------------------------------------------------------------------------------------------------------------------------------------------
Component 0 (hexane), current number of integer/fractional/reaction molecules: 110/0/0 (average 110.00000/  0.00000), density: 663.09617 (average 672.83892) kg/m^3]
----------------------------------------------------------------------------------------------------------------------------------------------------
Degrees of freedom: 1980 0 1980 0
Number of Framework-atoms:      0
Number of Adsorbates:         110 (110 integer, 0 fractional, 0 reaction)
Number of Cations:              0 (0 integer, 0 fractional, 0 reaction)

Current total potential energy:           -159744.2699816908 [K]  (avg.     -162100.3337378405)
	Current Host-Host energy:                     0.0000000000 [K]  (avg.           0.0000000000)
	Current Host-Adsorbate energy:                0.0000000000 [K]  (avg.           0.0000000000)
	Current Host-Cation energy:                   0.0000000000 [K]  (avg.           0.0000000000)
	Current Adsorbate-Adsorbate energy:     -378813.1294424681 [K]  (avg.     -382107.3071150351)
	Current Cation-Cation energy:                 0.0000000000 [K]  (avg.           0.0000000000)
	Current Adsorbate-Cation energy:              0.0000000000 [K]  (avg.           0.0000000000)



Current cycle: 400 out of 5000
========================================================================================================

Net charge: 0 (F: 0, A: 0, C: 0)
Current Box:  28.50426   0.00000   0.00000 [A]   Average Box:  28.60613   0.00000   0.00000 [A]
               0.00000  28.50426   0.00000 [A]                  0.00000  28.60613   0.00000 [A]
               0.00000   0.00000  28.50426 [A]                  0.00000   0.00000  28.60613 [A]
Box-lengths:   28.50426  28.50426  28.50426 [A] Average:  28.60613  28.60613  28.60613 [A]
Box-angles:   90.00000  90.00000  90.00000 [degrees] Average:  90.00000  90.00000  90.00000 [degrees]
Volume: 23159.49695 [A^3] Average Volume: 23409.18004 [A^3]

Current Stress:  19.64058  -9.20990  12.75493 [MPa]   Average Stress: 22174.39363 -2895.25406 7134.25553 [kPa]
                 -9.20990  42.57897  -9.63280 [MPa]                   -2895.25406 9046.50064 -2512.61806 [kPa]
                 12.75493  -9.63280  44.06162 [MPa]                   7134.25553 -2512.61806 26293.78867 [kPa]
Average pressure:   19171.5609792467 [kPa]     189.2085958968 [atm]     191.7156097925 [bar]
	Ideal gas part:     19334.5120811632 [kPa]     190.8167982350 [atm]     193.3451208116 [bar]
	excess part:         -162.9511019164 [kPa]      -1.6082023382 [atm]      -1.6295110192 [bar]
	tail correction:       0.0000000000 [kPa]       0.0000000000 [atm]       0.0000000000 [bar]

Amount of molecules per component:
----------------------------------------------------------------------------------------------------------------------------------------------------
Component 0 (hexane), current number of integer/fractional/reaction molecules: 110/0/0 (average 110.00000/  0.00000), density: 679.66681 (average 672.45891) kg/m^3]
----------------------------------------------------------------------------------------------------------------------------------------------------
Degrees of freedom: 1980 0 1980 0
Number of Framework-atoms:      0
Number of Adsorbates:         110 (110 integer, 0 fractional, 0 reaction)
Number of Cations:              0 (0 integer, 0 fractional, 0 reaction)

Current total potential energy:           -164561.4175453733 [K]  (avg.     -161858.4560429814)
	Current Host-Host energy:                     0.0000000000 [K]  (avg.           0.0000000000)
	Current Host-Adsorbate energy:                0.0000000000 [K]  (avg.           0.0000000000)
	Current Host-Cation energy:                   0.0000000000 [K]  (avg.           0.0000000000)
	Current Adsorbate-Adsorbate energy:     -384069.9054116788 [K]  (avg.     -381738.6840872243)
	Current Cation-Cation energy:                 0.0000000000 [K]  (avg.           0.0000000000)
	Current Adsorbate-Cation energy:              0.0000000000 [K]  (avg.           0.0000000000)



Current cycle: 500 out of 5000
========================================================================================================

Net charge: 0 (F: 0, A: 0, C: 0)
Current Box:  28.51823   0.00000   0.00000 [A]   Average Box:  28.61149   0.00000   0.00000 [A]
               0.00000  28.51823   0.00000 [A]                  0.00000  28.61149   0.00000 [A]
               0.00000   0.00000  28.51823 [A]                  0.00000   0.00000  28.61149 [A]
Box-lengths:   28.51823  28.51823  28.51823 [A] Average:  28.61149  28.61149  28.61149 [A]
Box-angles:   90.00000  90.00000  90.00000 [degrees] Average:  90.00000  90.00000  90.00000 [degrees]
Volume: 23193.57198 [A^3] Average Volume: 23422.41938 [A^3]

Current Stress:  12.88407   3.95326   5.95976 [MPa]   Average Stress: 18459.46459 1468.89251 8901.90214 [kPa]
                  3.95326  17.10275  14.63525 [MPa]                   1468.89251 9948.69103 -1408.47321 [kPa]
                  5.95976  14.63525  51.71157 [MPa]                   8901.90214 -1408.47321 26322.34667 [kPa]
Average pressure:   18243.5007624430 [kPa]     180.0493536881 [atm]     182.4350076244 [bar]
	Ideal gas part:     19323.7480079686 [kPa]     190.7105650922 [atm]     193.2374800797 [bar]
	excess part:        -1080.2472455256 [kPa]     -10.6612114042 [atm]     -10.8024724553 [bar]
	tail correction:       0.0000000000 [kPa]       0.0000000000 [atm]       0.0000000000 [bar]

Amount of molecules per component:
----------------------------------------------------------------------------------------------------------------------------------------------------
Component 0 (hexane), current number of integer/fractional/reaction molecules: 110/0/0 (average 110.00000/  0.00000), density: 678.66827 (average 672.08454) kg/m^3]
----------------------------------------------------------------------------------------------------------------------------------------------------
Degrees of freedom: 1980 0 1980 0
Number of Framework-atoms:      0
Number of Adsorbates:         110 (110 integer, 0 fractional, 0 reaction)
Number of Cations:              0 (0 integer, 0 fractional, 0 reaction)

Current total potential energy:           -163561.3925427620 [K]  (avg.     -161622.3083916343)
	Current Host-Host energy:                     0.0000000000 [K]  (avg.           0.0000000000)
	Current Host-Adsorbate energy:                0.0000000000 [K]  (avg.           0.0000000000)
	Current Host-Cation energy:                   0.0000000000 [K]  (avg.           0.0000000000)
	Current Adsorbate-Adsorbate energy:     -385222.3788999880 [K]  (avg.     -381669.5453666365)
	Current Cation-Cation energy:                 0.0000000000 [K]  (avg.           0.0000000000)
	Current Adsorbate-Cation energy:              0.0000000000 [K]  (avg.           0.0000000000)



Current cycle: 600 out of 5000
[...]
	Block[ 3]            0.00000 [K]
	Block[ 4]            0.00000 [K]
	------------------------------------------------------------------------------
	Average              0.00000 [K] +/-            0.00000 [K]

Average Cation Bend angle inversion energy:
===========================================
	Block[ 0]            0.00000 [K]
	Block[ 1]            0.00000 [K]
	Block[ 2]            0.00000 [K]
	Block[ 3]            0.00000 [K]
	Block[ 4]            0.00000 [K]
	------------------------------------------------------------------------------
	Average              0.00000 [K] +/-            0.00000 [K]

Average Cation Torsion energy:
==============================
	Block[ 0]            0.00000 [K]
	Block[ 1]            0.00000 [K]
	Block[ 2]            0.00000 [K]
	Block[ 3]            0.00000 [K]
	Block[ 4]            0.00000 [K]
	------------------------------------------------------------------------------
	Average              0.00000 [K] +/-            0.00000 [K]

Average Cation Improper Torsion energy:
=======================================
	Block[ 0]            0.00000 [K]
	Block[ 1]            0.00000 [K]
	Block[ 2]            0.00000 [K]
	Block[ 3]            0.00000 [K]
	Block[ 4]            0.00000 [K]
	------------------------------------------------------------------------------
	Average              0.00000 [K] +/-            0.00000 [K]

Average Cation Bond-Bond cross term energy:
=================================================
	Block[ 0]            0.00000 [K]
	Block[ 1]            0.00000 [K]
	Block[ 2]            0.00000 [K]
	Block[ 3]            0.00000 [K]
	Block[ 4]            0.00000 [K]
	------------------------------------------------------------------------------
	Average              0.00000 [K] +/-            0.00000 [K]

Average Cation Bend-Bend cross term energy:
===========================================
	Block[ 0]            0.00000 [K]
	Block[ 1]            0.00000 [K]
	Block[ 2]            0.00000 [K]
	Block[ 3]            0.00000 [K]
	Block[ 4]            0.00000 [K]
	------------------------------------------------------------------------------
	Average              0.00000 [K] +/-            0.00000 [K]

Average Cation Bond-Bend cross term energy:
==============================================
	Block[ 0]            0.00000 [K]
	Block[ 1]            0.00000 [K]
	Block[ 2]            0.00000 [K]
	Block[ 3]            0.00000 [K]
	Block[ 4]            0.00000 [K]
	------------------------------------------------------------------------------
	Average              0.00000 [K] +/-            0.00000 [K]

Average Cation Bond-Torsion cross term energy:
==============================================
	Block[ 0]            0.00000 [K]
	Block[ 1]            0.00000 [K]
	Block[ 2]            0.00000 [K]
	Block[ 3]            0.00000 [K]
	Block[ 4]            0.00000 [K]
	------------------------------------------------------------------------------
	Average              0.00000 [K] +/-            0.00000 [K]

Average Cation Bend-Torsion cross term energy:
==============================================
	Block[ 0]            0.00000 [K]
	Block[ 1]            0.00000 [K]
	Block[ 2]            0.00000 [K]
	Block[ 3]            0.00000 [K]
	Block[ 4]            0.00000 [K]
	------------------------------------------------------------------------------
	Average              0.00000 [K] +/-            0.00000 [K]

Average Cation Intra Van der Waals energy:
==========================================
	Block[ 0]            0.00000 [K]
	Block[ 1]            0.00000 [K]
	Block[ 2]            0.00000 [K]
	Block[ 3]            0.00000 [K]
	Block[ 4]            0.00000 [K]
	------------------------------------------------------------------------------
	Average              0.00000 [K] +/-            0.00000 [K]

Average Cation Intra charge-charge Coulomb energy:
====================================
	Block[ 0]            0.00000 [K]
	Block[ 1]            0.00000 [K]
	Block[ 2]            0.00000 [K]
	Block[ 3]            0.00000 [K]
	Block[ 4]            0.00000 [K]
	------------------------------------------------------------------------------
	Average              0.00000 [K] +/-            0.00000 [K]

Average Cation Intra charge-bonddipole Coulomb energy:
====================================
	Block[ 0]            0.00000 [K]
	Block[ 1]            0.00000 [K]
	Block[ 2]            0.00000 [K]
	Block[ 3]            0.00000 [K]
	Block[ 4]            0.00000 [K]
	------------------------------------------------------------------------------
	Average              0.00000 [K] +/-            0.00000 [K]

Average Cation Intra bonddipole-bonddipole Coulomb energy:
====================================
	Block[ 0]            0.00000 [K]
	Block[ 1]            0.00000 [K]
	Block[ 2]            0.00000 [K]
	Block[ 3]            0.00000 [K]
	Block[ 4]            0.00000 [K]
	------------------------------------------------------------------------------
	Average              0.00000 [K] +/-            0.00000 [K]

Average Host-Host energy:
=========================
	Block[ 0] 0.00000            Van der Waals: 0.00000            Coulomb: 0.00000            [K]
	Block[ 1] 0.00000            Van der Waals: 0.00000            Coulomb: 0.00000            [K]
	Block[ 2] 0.00000            Van der Waals: 0.00000            Coulomb: 0.00000            [K]
	Block[ 3] 0.00000            Van der Waals: 0.00000            Coulomb: 0.00000            [K]
	Block[ 4] 0.00000            Van der Waals: 0.00000            Coulomb: 0.00000            [K]
	------------------------------------------------------------------------------
	Average   0.00000            Van der Waals: 0.000000           Coulomb: 0.00000            [K]
	      +/- 0.00000                       +/- 0.000000                +/- 0.00000            [K]

Average Adsorbate-Adsorbate energy:
===================================
	Block[ 0] -383635.29977      Van der Waals: -383635.29977      Coulomb: 0.00000            [K]
	Block[ 1] -398602.55066      Van der Waals: -398602.55066      Coulomb: 0.00000            [K]
	Block[ 2] -399782.01886      Van der Waals: -399782.01886      Coulomb: 0.00000            [K]
	Block[ 3] -393997.12794      Van der Waals: -393997.12794      Coulomb: 0.00000            [K]
	Block[ 4] -395730.08068      Van der Waals: -395730.08068      Coulomb: 0.00000            [K]
	------------------------------------------------------------------------------
	Average   -394349.41558      Van der Waals: -394349.415581     Coulomb: 0.00000            [K]
	      +/- 7959.54664                    +/- 7959.546642             +/- 0.00000            [K]

Average Cation-Cation energy:
=============================
	Block[ 0] 0.00000            Van der Waals: 0.00000            Coulomb: 0.00000            [K]
	Block[ 1] 0.00000            Van der Waals: 0.00000            Coulomb: 0.00000            [K]
	Block[ 2] 0.00000            Van der Waals: 0.00000            Coulomb: 0.00000            [K]
	Block[ 3] 0.00000            Van der Waals: 0.00000            Coulomb: 0.00000            [K]
	Block[ 4] 0.00000            Van der Waals: 0.00000            Coulomb: 0.00000            [K]
	------------------------------------------------------------------------------
	Average   0.00000            Van der Waals: 0.000000           Coulomb: 0.00000            [K]
	      +/- 0.00000                       +/- 0.000000                +/- 0.00000            [K]

Average Host-Adsorbate energy:
==============================
	Block[ 0] 0.00000            Van der Waals: 0.00000            Coulomb: 0.00000            [K]
	Block[ 1] 0.00000            Van der Waals: 0.00000            Coulomb: 0.00000            [K]
	Block[ 2] 0.00000            Van der Waals: 0.00000            Coulomb: 0.00000            [K]
	Block[ 3] 0.00000            Van der Waals: 0.00000            Coulomb: 0.00000            [K]
	Block[ 4] 0.00000            Van der Waals: 0.00000            Coulomb: 0.00000            [K]
	------------------------------------------------------------------------------
	Average   0.00000            Van der Waals: 0.000000           Coulomb: 0.00000            [K]
	      +/- 0.00000                       +/- 0.000000                +/- 0.00000            [K]

Average Host-Cation energy:
===========================
	Block[ 0] 0.00000            Van der Waals: 0.00000            Coulomb: 0.00000            [K]
	Block[ 1] 0.00000            Van der Waals: 0.00000            Coulomb: 0.00000            [K]
	Block[ 2] 0.00000            Van der Waals: 0.00000            Coulomb: 0.00000            [K]
	Block[ 3] 0.00000            Van der Waals: 0.00000            Coulomb: 0.00000            [K]
	Block[ 4] 0.00000            Van der Waals: 0.00000            Coulomb: 0.00000            [K]
	------------------------------------------------------------------------------
	Average   0.00000            Van der Waals: 0.000000           Coulomb: 0.00000            [K]
	      +/- 0.00000                       +/- 0.000000                +/- 0.00000            [K]

Average Adsorbate-Cation energy:
================================
	Block[ 0] 0.00000            Van der Waals: 0.00000            Coulomb: 0.00000            [K]
	Block[ 1] 0.00000            Van der Waals: 0.00000            Coulomb: 0.00000            [K]
	Block[ 2] 0.00000            Van der Waals: 0.00000            Coulomb: 0.00000            [K]
	Block[ 3] 0.00000            Van der Waals: 0.00000            Coulomb: 0.00000            [K]
	Block[ 4] 0.00000            Van der Waals: 0.00000            Coulomb: 0.00000            [K]
	------------------------------------------------------------------------------
	Average   0.00000            Van der Waals: 0.000000           Coulomb: 0.00000            [K]
	      +/- 0.00000                       +/- 0.000000                +/- 0.00000            [K]

Host polarization energy:
=======================
	Block[ 0]            0.00000 [K]
	Block[ 1]            0.00000 [K]
	Block[ 2]            0.00000 [K]
	Block[ 3]            0.00000 [K]
	Block[ 4]            0.00000 [K]
	------------------------------------------------------------------------------
	Average              0.00000 [K] +/-            0.00000 [K]

Adsorbate polarization energy:
=======================
	Block[ 0]            0.00000 [K]
	Block[ 1]            0.00000 [K]
	Block[ 2]            0.00000 [K]
	Block[ 3]            0.00000 [K]
	Block[ 4]            0.00000 [K]
	------------------------------------------------------------------------------
	Average              0.00000 [K] +/-            0.00000 [K]

Cation polarization energy:
=======================
	Block[ 0]            0.00000 [K]
	Block[ 1]            0.00000 [K]
	Block[ 2]            0.00000 [K]
	Block[ 3]            0.00000 [K]
	Block[ 4]            0.00000 [K]
	------------------------------------------------------------------------------
	Average              0.00000 [K] +/-            0.00000 [K]

Host back-polarization energy:
=======================
	Block[ 0]            0.00000 [K]
	Block[ 1]            0.00000 [K]
	Block[ 2]            0.00000 [K]
	Block[ 3]            0.00000 [K]
	Block[ 4]            0.00000 [K]
	------------------------------------------------------------------------------
	Average              0.00000 [K] +/-            0.00000 [K]

Adsorbate back-polarization energy:
=======================
	Block[ 0]            0.00000 [K]
	Block[ 1]            0.00000 [K]
	Block[ 2]            0.00000 [K]
	Block[ 3]            0.00000 [K]
	Block[ 4]            0.00000 [K]
	------------------------------------------------------------------------------
	Average              0.00000 [K] +/-            0.00000 [K]

Cation back-polarization energy:
=======================
	Block[ 0]            0.00000 [K]
	Block[ 1]            0.00000 [K]
	Block[ 2]            0.00000 [K]
	Block[ 3]            0.00000 [K]
	Block[ 4]            0.00000 [K]
	------------------------------------------------------------------------------
	Average              0.00000 [K] +/-            0.00000 [K]

Tail-correction energy:
=======================
	Block[ 0]            0.00000 [K]
	Block[ 1]            0.00000 [K]
	Block[ 2]            0.00000 [K]
	Block[ 3]            0.00000 [K]
	Block[ 4]            0.00000 [K]
	------------------------------------------------------------------------------
	Average              0.00000 [K] +/-            0.00000 [K]

Distance-constraints energy:
=======================
	Block[ 0]            0.00000 [K]
	Block[ 1]            0.00000 [K]
	Block[ 2]            0.00000 [K]
	Block[ 3]            0.00000 [K]
	Block[ 4]            0.00000 [K]
	------------------------------------------------------------------------------
	Average              0.00000 [K] +/-            0.00000 [K]

Angle-constraints energy:
=======================
	Block[ 0]            0.00000 [K]
	Block[ 1]            0.00000 [K]
	Block[ 2]            0.00000 [K]
	Block[ 3]            0.00000 [K]
	Block[ 4]            0.00000 [K]
	------------------------------------------------------------------------------
	Average              0.00000 [K] +/-            0.00000 [K]

Dihedral-constraints energy:
=======================
	Block[ 0]            0.00000 [K]
	Block[ 1]            0.00000 [K]
	Block[ 2]            0.00000 [K]
	Block[ 3]            0.00000 [K]
	Block[ 4]            0.00000 [K]
	------------------------------------------------------------------------------
	Average              0.00000 [K] +/-            0.00000 [K]

Inversion-bend constraints energy:
=======================
	Block[ 0]            0.00000 [K]
	Block[ 1]            0.00000 [K]
	Block[ 2]            0.00000 [K]
	Block[ 3]            0.00000 [K]
	Block[ 4]            0.00000 [K]
	------------------------------------------------------------------------------
	Average              0.00000 [K] +/-            0.00000 [K]

Out-of-plane-distance constraints energy:
=======================
	Block[ 0]            0.00000 [K]
	Block[ 1]            0.00000 [K]
	Block[ 2]            0.00000 [K]
	Block[ 3]            0.00000 [K]
	Block[ 4]            0.00000 [K]
	------------------------------------------------------------------------------
	Average              0.00000 [K] +/-            0.00000 [K]

Exclusion-constraints energy:
=======================
	Block[ 0]            0.00000 [K]
	Block[ 1]            0.00000 [K]
	Block[ 2]            0.00000 [K]
	Block[ 3]            0.00000 [K]
	Block[ 4]            0.00000 [K]
	------------------------------------------------------------------------------
	Average              0.00000 [K] +/-            0.00000 [K]

Total energy:
=============
	Block[ 0]      -161574.33800 [K]
	Block[ 1]      -169508.70989 [K]
	Block[ 2]      -170016.94069 [K]
	Block[ 3]      -173222.17467 [K]
	Block[ 4]      -181139.04604 [K]
	------------------------------------------------------------------------------
	Average        -171092.24186 [K] +/-         8772.53836 [K]

Number of molecules:
====================

Component 0 [hexane]
-------------------------------------------------------------
	Block[ 0] 110.00000          [-]
	Block[ 1] 110.00000          [-]
	Block[ 2] 110.00000          [-]
	Block[ 3] 110.00000          [-]
	Block[ 4] 110.00000          [-]
	------------------------------------------------------------------------------
	Average loading absolute                            110.0000000000 +/-       0.0000000000 [-]
	Average loading absolute [molecules/unit cell]      110.0000000000 +/-       0.0000000000 [-]
	Average loading absolute [mol/kg framework]                           inf +/-                nan [-]
	Average loading absolute [milligram/gram framework]                   inf +/-                nan [-]
	Average loading absolute [cm^3 (STP)/gr framework]                    inf +/-                nan [-]
	Average loading absolute [cm^3 (STP)/cm^3 framework]       151.6340823092 +/-       0.0000000000 [-]

	Block[ 0] 110.00000          [-]
	Block[ 1] 110.00000          [-]
	Block[ 2] 110.00000          [-]
	Block[ 3] 110.00000          [-]
	Block[ 4] 110.00000          [-]
	------------------------------------------------------------------------------
	Average loading excess                            110.0000000000 +/-       0.0000000000 [-]
	Average loading excess [molecules/unit cell]      110.0000000000 +/-       0.0000000000 [-]
	Average loading excess [mol/kg framework]                             inf +/-                nan [-]
	Average loading excess [milligram/gram framework]                     inf +/-                nan [-]
	Average loading excess [cm^3 (STP)/gr framework]                      inf +/-                nan [-]
	Average loading excess [cm^3 (STP)/cm^3 framework]         151.6340823092 +/-       0.0000000000 [-]


Average Widom Rosenbluth factor:
================================
	Block[ 0] 0 [-]
	Block[ 1] 0 [-]
	Block[ 2] 0 [-]
	Block[ 3] 0 [-]
	Block[ 4] 0 [-]
	------------------------------------------------------------------------------
	[hexane] Average Widom Rosenbluth-weight:   0 +/- 0.000000 [-]

Average Widom chemical potential:
=================================
	Block[ 0] 0 [-]
	Block[ 1] 0 [-]
	Block[ 2] 0 [-]
	Block[ 3] 0 [-]
	Block[ 4] 0 [-]
	------------------------------------------------------------------------------
	[hexane] Average chemical potential:   0 +/- 0.000000 [K]

Average Widom Ideal-gas contribution:
=====================================
	Block[ 0] 0 [-]
	Block[ 1] 0 [-]
	Block[ 2] 0 [-]
	Block[ 3] 0 [-]
	Block[ 4] 0 [-]
	------------------------------------------------------------------------------
	[hexane] Average Widom Ideal-gas chemical potential:   0 +/- 0.000000 [-]

Average Widom excess contribution:
==================================
	Block[ 0] 0 [-]
	Block[ 1] 0 [-]
	Block[ 2] 0 [-]
	Block[ 3] 0 [-]
	Block[ 4] 0 [-]
	------------------------------------------------------------------------------
	[hexane] Average Widom excess chemical potential:   0 +/- 0.000000 [-]

Average Gibbs Widom Rosenbluth factor:
======================================
	Block[ 0] 0 [-]
	Block[ 1] 0 [-]
	Block[ 2] 0 [-]
	Block[ 3] 0 [-]
	Block[ 4] 0 [-]
	------------------------------------------------------------------------------
	[hexane] Average Gibbs Widom Rosenbluth-weight:   0 +/- 0.000000 [-]

Average Gibbs Widom chemical potential:
=======================================
	Block[ 0] 0 [-]
	Block[ 1] 0 [-]
	Block[ 2] 0 [-]
	Block[ 3] 0 [-]
	Block[ 4] 0 [-]
	------------------------------------------------------------------------------
	[hexane] Average Gibbs chemical potential:   0 +/- 0.000000 [K]

Average Gibbs Widom Ideal-gas contribution:
===========================================
	Block[ 0] 0 [-]
	Block[ 1] 0 [-]
	Block[ 2] 0 [-]
	Block[ 3] 0 [-]
	Block[ 4] 0 [-]
	------------------------------------------------------------------------------
	[hexane] Average Gibbs Ideal-gas chemical potential:   0 +/- 0.000000 [-]

Average Gibbs Widom excess contribution:
===========================================
	Block[ 0] 0 [-]
	Block[ 1] 0 [-]
	Block[ 2] 0 [-]
	Block[ 3] 0 [-]
	Block[ 4] 0 [-]
	------------------------------------------------------------------------------
	[hexane] Average Gibbs excess chemical potential:   0 +/- 0.000000 [-]

Average Henry coefficient:
==========================
	Block[ 0] 0 [mol/kg/Pa]
	Block[ 1] 0 [mol/kg/Pa]
	Block[ 2] 0 [mol/kg/Pa]
	Block[ 3] 0 [mol/kg/Pa]
	Block[ 4] 0 [mol/kg/Pa]
	------------------------------------------------------------------------------
	[hexane] Average Henry coefficient:  0 +/- 0 [mol/kg/Pa]

Average adsorption energy <U_gh>_1-<U_h>_0 obtained from Widom-insertion:
(Note: the total heat of adsorption is dH=<U_gh>_1-<U_h>_0 - <U_g> - RT)
=========================================================================

Simulation finished,  0 warnings


Tue May 17 09:10:28 2022
Simulation finished on Tuesday, May 17.
The end time was 09:10 AM.

