Compiler and run-time data
===========================================================================
RASPA 2.0.47
Compiled as a 64-bits application
Compiler: gcc Apple LLVM 13.0.0 (clang-1300.0.29.30)
Compile Date = Apr 11 2022, Compile Time = 17:25:30

Tue May 17 09:37:57 2022
Simulation started on Tuesday, May 17.
The start time was 09:37 AM.

Cpu data:    x86_64
Cpu Model:   MacBookPro15,1
Host name:   amoghs-mbp.lan
OS release:  20.6.0
OS type:     Darwin
OS version:  20G527


Simulation
===========================================================================
Dimensions: 3
Random number seed: 1652794677
RASPA directory set to: /Users/amogh/RASPA/simulations/
String appended to output-files: 
Number of cycles: 5000
Number of initializing cycles: 1000
Number of equilibration cycles: 0
Print every: 100
Rectangular boundary condition applied
Timestep: 0.000500
	Degrees of freedom:                        660
	Translational Degrees of freedom:          660
	Rotational Degrees of freedom:             0
	Degrees of freedom Framework:              0


Mutual consistent basic set of units:
======================================
Unit of temperature: Kelvin
Unit of length:      1e-10 [m]
Unit of time:        1e-12 [s]
Unit of mass:        1.66054e-27 [kg]
Unit of charge:      1.60218e-19 [C/particle]

Derived units and their conversion factors:
===========================================
Unit of energy:              1.66054e-23 [J]
Unit of force:               1.66054e-13 [N]
Unit of pressure:            1.66054e+07 [Pa]
Unit of velocity:            100 [m/s]
Unit of acceleration:        1e-08 [m^2/s]
Unit of diffusion:           1e-08 [m^2/s]
Unit of dipole moment:       1.60218e-29 [C.m]
Unit of electric potential:  0.000103643 [V]
Unit of electric field:      1.03643e+06 [V]
Unit of polarizability:      1.54587e-35 [-]
Unit of Coulomb potential:   167101.0800066561  [K]
Unit of dielectric constant: 0.0000154587       [s^2 C^2/(kg m^3)]
Unit of wave vectors:        5.3088374589       [cm^1]
Boltzmann constant:          0.8314464919       [-]

Internal conversion factors:
===========================================
Energy to Kelvin:                                    1.2027242847
FH correction factor                                 2.0211930949
Heat capacity conversion factor:                    10.0000088723
From Debye to internal units:                        4.8032067991
Isothermal compressibility conversion factor:        0.0000000602

Energy conversion factors:
===========================================
From mdyne/A to kcal/mol/A^2:           143.933
From mdyne/A to kj/mol/A^2:             602.214
From mdyne/A to K/A^2:                  72429.7
From mdyne A/rad^2 to kcal/mol/deg^2:   0.0438444


Properties computed
===========================================================================
Movies: no
Radial Distribution Function: no
Number of molecules GCMC histogram: no
Histogram of the molecule positions: no
Free energy profiles: no
Pore Size Distribution Function: no
End-to-end distance: no
Histogram of the energy of the system: no
Compute thermodynamic factors: no
Framework spacing histograms: no
Residence times histograms: no
Distance histograms: no
Bend Angle histograms: no
Dihedral angle histograms: no
Angle between planes histograms: no
Molecule properties: no
Infra-red spectra: no
Mean-squared displacement using modified order-N algorithm: no
Velocity-autocorrelation function modified order-N algorithm: no
Rotational velocity-autocorrelation function modified order-N algorithm: no
Molecular orientation-autocorrelation function modified order-N algorithm: no
Bond orientation-autocorrelation function modified order-N algorithm: no
Mean-squared displacement (conventional algorithm): no
Velocity-autocorrelation function (conventional algorithm): no
3D density grid for adsorbates: no
Compute cation an/or adsorption sites: no
dcTST snapshots: no
Compute pressure and stress: yes


VTK
===========================================================================
VTK fractional-range position framework atoms: [-0.001000,1.001000] [-0.001000,1.001000] [-0.001000,1.001000]
VTK fractional-range position framework bonds: [-0.151000,1.151000] [-0.151000,1.151000] [-0.151000,1.151000]
VTK fractional-range com-position adsorbate molecules: [-0.101000,1.101000] [-0.101000,1.101000] [-0.101000,1.101000]
VTK fractional-range com-position cation molecules: [-0.101000,1.101000] [-0.101000,1.101000] [-0.101000,1.101000]
	3D free energy grid made for the full simulation-cell


Thermo/Baro-stat NHC parameters
===========================================================================
External temperature: 298 [K]
Beta: 0.00403598 [energy unit]
External Pressure: 4.872e+06 [Pa]


Thermostat chain-length: 3
Timescale parameter for thermostat: 0.150000 [ps]
Barostat chain-length:   3
Timescale parameter for barostat:   0.150000 [ps]

Number of Yoshida-Suzuki decomposition steps: 5
Number of respa steps: 5


Method and settings for electrostatics
===============================================================================
Dielectric constant of the medium : 1.000000
Charge from charge-equilibration: no
Ewald summation is used (exact solution of a periodic system)
Relative precision                : 1e-06
Alpha convergence parameter       : 0.265058
kvec (x,y,z)                      : 8 8 8


CFC-RXMC parameters
===========================================================================
Number of reactions: 0


Rattle parameters
===========================================================================
Distance constraint type: r^2-r^2_0
Bend angle constraint type: theta-theta_0
Dihedral angle constraint type: phi-phi_0
Inversion-bend angle constraint type: chi-chi_0
Out-of-plane distance constraint type: r-r_0


Spectra parameters
===========================================================================
Compute normal modes: no


Minimization parameters
===========================================================================
Generalized coordinates are: Cartesian center-of-mass, elements of the orientational matrix p1,p2,p3 and strain
Potential derivatives are evaluated: analytically
Translation of the system is removed from the generalized Hessian: no
Rotation of the system is removed from the generalized Hessian: no
Maximum step-length: 0.3
Convergence factor: 1
Maximum number of minimization steps: 10000
Use gradients in the line-minimizations: yes
RMS gradient tolerance: 1e-06
Maximum gradient tolerance: 1e-06

Distance constraints: 0
Angle constraints: 0
Dihedral constraints: 0

Improper dihedral constraints: 0

Inversion-bend constraints: 0

Out-of-plane constraints: 0

Harmonic distance constraints: 0
Harmonic angle constraints: 0
Harmonic dihedral constraints: 0

Dihedral mid-point measurements: 0

All framework atoms are fixed

Fixed adsorbate atoms:  
Fixed adsorbate groups (center-of-mass):  
Fixed adsorbate groups (orientation):  

Fixed cation atoms:  
Fixed cation groups (center-of-mass):  
Fixed cation groups (orientation):  


dcTST parameters
===========================================================================
Free energy profiles computed: no
Free energy profiles written every 5000 cycles
Free energy mapping: mapped to a,b,c-coordinates
BarrierPosition:       0.0000000000       0.0000000000       0.0000000000
BarrierNormal:         0.0000000000       0.0000000000       0.0000000000
Start with a molecule on top of the barrier: no
Maximum distance to barrier (e.g. distance to minumum free energy):       0.0000000000 [A]
Maximum trajectory time:      10.0000000000 [ps]
Each configuration is used with 5 different initial velocities


Cbmc parameters
===========================================================================
Biasing method: using only the VDW part
Number of trial positions:                                       10
Number of trial positions (reinsertion):                         10
Number of trial positions (partial reinsertion):                 10
Number of trial positions (identity-change):                     10
Number of trial positions (Gibbs particle transfer):             10
Number of trial positions (insertion/deletion):                  10
Number of trial positions (Widom insertion):                     10
Number of trial positions coupled Torsion-selection:             100
Number of trial positions first bead:                            10
Number of trial positions first bead (reinsertion):              10
Number of trial positions first bead (partial reinsertion):      10
Number of trial positions first bead (identity-change):          10
Number of trial positions first bead (Gibbs particle transfer):  10
Number of trial positions first bead (insertion/deletion):       10
Number of trial positions first bead (Widom insertion):          10
Number of trial moves per open bead:                             150
Target acceptance ratio small-mc scheme:                         0.400000
Energy overlap criteria:                                         1e+07
Minimal Rosenbluth factor:                                       1e-150


Pseudo atoms: 14
===========================================================================
Pseudo Atom[   0] Name UNIT     Oxidation:          Element: H    pdb-name: H    Scat. Types:   1   1 Mass=1.000000000  B-factor:0.000   
                 Charge=1.000000000          Polarization=0.000000000  [A^3] (considered a charged atom and no polarization)  Interactions: yes
                 Anisotropic factor:    0.000 [-] (Absolute), Radius:    1.000 [A], Framework-atom:  no
Pseudo Atom[   1] Name He       Oxidation: +0       Element: He   pdb-name: He   Scat. Types:   3   2 Mass=4.002602000  B-factor:1.000   
                 Charge=0.000000000          Polarization=0.000000000  [A^3] (considered a chargeless atom and no polarization)  Interactions: yes
                 Anisotropic factor:    0.000 [-] (Relative), Radius:    1.000 [A], Framework-atom:  no
Pseudo Atom[   2] Name C_co2    Oxidation: +0       Element: C    pdb-name: C    Scat. Types:   7   6 Mass=12.000000000 B-factor:1.000   
                 Charge=0.651200000          Polarization=0.000000000  [A^3] (considered a charged atom and no polarization)  Interactions: yes
                 Anisotropic factor:    0.000 [-] (Relative), Radius:    0.720 [A], Framework-atom:  no
Pseudo Atom[   3] Name O_co2    Oxidation: +0       Element: O    pdb-name: O    Scat. Types:   9   8 Mass=15.999400000 B-factor:1.000   
                 Charge=-0.325600000         Polarization=0.000000000  [A^3] (considered a charged atom and no polarization)  Interactions: yes
                 Anisotropic factor:    0.000 [-] (Relative), Radius:    0.680 [A], Framework-atom:  no
Pseudo Atom[   4] Name O_o2     Oxidation: +0       Element: O    pdb-name: O    Scat. Types:   9   8 Mass=15.999400000 B-factor:1.000   
                 Charge=-0.112000000         Polarization=0.000000000  [A^3] (considered a charged atom and no polarization)  Interactions: yes
                 Anisotropic factor:    0.000 [-] (Relative), Radius:    0.700 [A], Framework-atom:  no
Pseudo Atom[   5] Name O_com    Oxidation: +0       Element: -    pdb-name: O    Scat. Types:   0   8 Mass=0.000000000  B-factor:1.000   
                 Charge=0.224000000          Polarization=0.000000000  [A^3] (considered a charged atom and no polarization)  Interactions: yes
                 Anisotropic factor:    0.000 [-] (Relative), Radius:    0.700 [A], Framework-atom:  no
Pseudo Atom[   6] Name N_n2     Oxidation: +0       Element: N    pdb-name: N    Scat. Types:   8   7 Mass=14.006740000 B-factor:1.000   
                 Charge=-0.405000000         Polarization=0.000000000  [A^3] (considered a charged atom and no polarization)  Interactions: yes
                 Anisotropic factor:    0.000 [-] (Relative), Radius:    0.700 [A], Framework-atom:  no
Pseudo Atom[   7] Name N_com    Oxidation: +0       Element: -    pdb-name: N    Scat. Types:   0   7 Mass=0.000000000  B-factor:1.000   
                 Charge=0.810000000          Polarization=0.000000000  [A^3] (considered a charged atom and no polarization)  Interactions: yes
                 Anisotropic factor:    0.000 [-] (Relative), Radius:    0.700 [A], Framework-atom:  no
Pseudo Atom[   8] Name Ar       Oxidation: +0       Element: Ar   pdb-name: Ar   Scat. Types:  19  18 Mass=39.948000000 B-factor:1.000   
                 Charge=0.000000000          Polarization=0.000000000  [A^3] (considered a chargeless atom and no polarization)  Interactions: yes
                 Anisotropic factor:    0.000 [-] (Relative), Radius:    0.700 [A], Framework-atom:  no
Pseudo Atom[   9] Name CH4      Oxidation: +0       Element: C    pdb-name: C    Scat. Types:   7   6 Mass=16.042460000 B-factor:1.000   
                 Charge=0.000000000          Polarization=0.000000000  [A^3] (considered a chargeless atom and no polarization)  Interactions: yes
                 Anisotropic factor:    0.000 [-] (Relative), Radius:    1.000 [A], Framework-atom:  no
Pseudo Atom[  10] Name CH3      Oxidation: +0       Element: C    pdb-name: C    Scat. Types:   7   6 Mass=15.034520000 B-factor:1.000   
                 Charge=0.000000000          Polarization=0.000000000  [A^3] (considered a chargeless atom and no polarization)  Interactions: yes
                 Anisotropic factor:    0.000 [-] (Relative), Radius:    1.000 [A], Framework-atom:  no
Pseudo Atom[  11] Name CH2      Oxidation: +0       Element: C    pdb-name: C    Scat. Types:   7   6 Mass=14.026580000 B-factor:1.000   
                 Charge=0.000000000          Polarization=0.000000000  [A^3] (considered a chargeless atom and no polarization)  Interactions: yes
                 Anisotropic factor:    0.000 [-] (Relative), Radius:    1.000 [A], Framework-atom:  no
Pseudo Atom[  12] Name CH       Oxidation: +0       Element: C    pdb-name: C    Scat. Types:   7   6 Mass=13.018640000 B-factor:1.000   
                 Charge=0.000000000          Polarization=0.000000000  [A^3] (considered a chargeless atom and no polarization)  Interactions: yes
                 Anisotropic factor:    0.000 [-] (Relative), Radius:    1.000 [A], Framework-atom:  no
Pseudo Atom[  13] Name C        Oxidation: +0       Element: C    pdb-name: C    Scat. Types:   7   6 Mass=12.000000000 B-factor:1.000   
                 Charge=0.000000000          Polarization=0.000000000  [A^3] (considered a chargeless atom and no polarization)  Interactions: yes
                 Anisotropic factor:    0.000 [-] (Relative), Radius:    1.000 [A], Framework-atom:  no


Forcefield: ExampleMoleculeForceField
===========================================================================
Minimal distance: 1
CutOff VDW : 12.000000 (144.000000)
CutOff VDW switching on: 10.800000 (116.640000)
CutOff charge-charge : 12.000000 (144.000000)
CutOff charge-charge switching on: 7.800000 (60.840000)
CutOff charge-bonddipole : 12.000000 (144.000000)
CutOff charge-bondipole switching on: 8.400000 (70.560000)
CutOff bonddipole-bonddipole : 12.000000 (144.000000)
CutOff bonddipole-bondipole switching on: 9.000000 (81.000000)
Polarization is neglected
All potentials are shifted to zero at the Cutoff

General mixing rule: Lorentz-Berthelot mixing rules are used FIRST for cross terms
0 cross terms are overwritten using the individual mixing rules from the file 'force_field_mixing_rules.def'
and then 0 terms are overwritten using the specific interactions from the file 'force_field.def'

The force field and all the interactions:
     He -      He [LENNARD_JONES] p_0/k_B:  10.90000 [K], p_1: 2.64000 [A], shift/k_B:  -0.00494280 [K], tailcorrection: no
     He -   C_co2 [LENNARD_JONES] p_0/k_B:  18.06294 [K], p_1: 2.69250 [A], shift/k_B:  -0.00921806 [K], tailcorrection: no
     He -   O_co2 [LENNARD_JONES] p_0/k_B:  30.55837 [K], p_1: 2.82850 [A], shift/k_B:  -0.02095875 [K], tailcorrection: no
     He -    O_o2 [LENNARD_JONES] p_0/k_B:  24.04061 [K], p_1: 2.84250 [A], shift/k_B:  -0.01698416 [K], tailcorrection: no
     He -   O_com [ZERO_POTENTIAL]
     He -    N_n2 [LENNARD_JONES] p_0/k_B:  20.43155 [K], p_1: 2.97300 [A], shift/k_B:  -0.01889482 [K], tailcorrection: no
     He -   N_com [ZERO_POTENTIAL]
     He -      Ar [LENNARD_JONES] p_0/k_B:  36.77449 [K], p_1: 3.01000 [A], shift/k_B:  -0.03662773 [K], tailcorrection: no
     He -     CH4 [LENNARD_JONES] p_0/k_B:  41.56501 [K], p_1: 3.18000 [A], shift/k_B:  -0.05755893 [K], tailcorrection: no
     He -     CH3 [LENNARD_JONES] p_0/k_B:  34.31035 [K], p_1: 3.20000 [A], shift/k_B:  -0.04933343 [K], tailcorrection: no
     He -     CH2 [LENNARD_JONES] p_0/k_B:  24.70627 [K], p_1: 3.30000 [A], shift/k_B:  -0.04272436 [K], tailcorrection: no
     He -      CH [LENNARD_JONES] p_0/k_B:  13.61249 [K], p_1: 3.65500 [A], shift/k_B:  -0.04343978 [K], tailcorrection: no
     He -       C [LENNARD_JONES] p_0/k_B:   2.95296 [K], p_1: 4.51000 [A], shift/k_B:  -0.03319436 [K], tailcorrection: no
  C_co2 -   C_co2 [LENNARD_JONES] p_0/k_B:  29.93300 [K], p_1: 2.74500 [A], shift/k_B:  -0.01715199 [K], tailcorrection: no
  C_co2 -   O_co2 [LENNARD_JONES] p_0/k_B:  50.63981 [K], p_1: 2.88100 [A], shift/k_B:  -0.03878296 [K], tailcorrection: no
  C_co2 -    O_o2 [LENNARD_JONES] p_0/k_B:  39.83889 [K], p_1: 2.89500 [A], shift/k_B:  -0.03141127 [K], tailcorrection: no
  C_co2 -   O_com [ZERO_POTENTIAL]
  C_co2 -    N_n2 [LENNARD_JONES] p_0/k_B:  33.85815 [K], p_1: 3.02550 [A], shift/k_B:  -0.03477820 [K], tailcorrection: no
  C_co2 -   N_com [ZERO_POTENTIAL]
  C_co2 -      Ar [LENNARD_JONES] p_0/k_B:  60.94085 [K], p_1: 3.06250 [A], shift/k_B:  -0.06733139 [K], tailcorrection: no
  C_co2 -     CH4 [LENNARD_JONES] p_0/k_B:  68.87946 [K], p_1: 3.23250 [A], shift/k_B:  -0.10522708 [K], tailcorrection: no
  C_co2 -     CH3 [LENNARD_JONES] p_0/k_B:  56.85740 [K], p_1: 3.25250 [A], shift/k_B:  -0.09013451 [K], tailcorrection: no
  C_co2 -     CH2 [LENNARD_JONES] p_0/k_B:  40.94201 [K], p_1: 3.35250 [A], shift/k_B:  -0.07783014 [K], tailcorrection: no
  C_co2 -      CH [LENNARD_JONES] p_0/k_B:  22.55795 [K], p_1: 3.70750 [A], shift/k_B:  -0.07841175 [K], tailcorrection: no
  C_co2 -       C [LENNARD_JONES] p_0/k_B:   4.89351 [K], p_1: 4.56250 [A], shift/k_B:  -0.05895165 [K], tailcorrection: no
  O_co2 -   O_co2 [LENNARD_JONES] p_0/k_B:  85.67100 [K], p_1: 3.01700 [A], shift/k_B:  -0.08652638 [K], tailcorrection: no
  O_co2 -    O_o2 [LENNARD_JONES] p_0/k_B:  67.39832 [K], p_1: 3.03100 [A], shift/k_B:  -0.06998813 [K], tailcorrection: no
  O_co2 -   O_com [ZERO_POTENTIAL]
  O_co2 -    N_n2 [LENNARD_JONES] p_0/k_B:  57.28026 [K], p_1: 3.16150 [A], shift/k_B:  -0.07659340 [K], tailcorrection: no
  O_co2 -   N_com [ZERO_POTENTIAL]
  O_co2 -      Ar [LENNARD_JONES] p_0/k_B: 103.09802 [K], p_1: 3.19850 [A], shift/k_B:  -0.14782408 [K], tailcorrection: no
  O_co2 -     CH4 [LENNARD_JONES] p_0/k_B: 116.52834 [K], p_1: 3.36850 [A], shift/k_B:  -0.22793491 [K], tailcorrection: no
  O_co2 -     CH3 [LENNARD_JONES] p_0/k_B:  96.18975 [K], p_1: 3.38850 [A], shift/k_B:  -0.19495125 [K], tailcorrection: no
  O_co2 -     CH2 [LENNARD_JONES] p_0/k_B:  69.26454 [K], p_1: 3.48850 [A], shift/k_B:  -0.16712968 [K], tailcorrection: no
  O_co2 -      CH [LENNARD_JONES] p_0/k_B:  38.16290 [K], p_1: 3.84350 [A], shift/k_B:  -0.16462890 [K], tailcorrection: no
  O_co2 -       C [LENNARD_JONES] p_0/k_B:   8.27870 [K], p_1: 4.69850 [A], shift/k_B:  -0.11888367 [K], tailcorrection: no
   O_o2 -    O_o2 [LENNARD_JONES] p_0/k_B:  53.02300 [K], p_1: 3.04500 [A], shift/k_B:  -0.05660368 [K], tailcorrection: no
   O_o2 -   O_com [ZERO_POTENTIAL]
   O_o2 -    N_n2 [LENNARD_JONES] p_0/k_B:  45.06301 [K], p_1: 3.17550 [A], shift/k_B:  -0.06187515 [K], tailcorrection: no
   O_o2 -   N_com [ZERO_POTENTIAL]
   O_o2 -      Ar [LENNARD_JONES] p_0/k_B:  81.10834 [K], p_1: 3.21250 [A], shift/k_B:  -0.11938149 [K], tailcorrection: no
   O_o2 -     CH4 [LENNARD_JONES] p_0/k_B:  91.67413 [K], p_1: 3.38250 [A], shift/k_B:  -0.18383502 [K], tailcorrection: no
   O_o2 -     CH3 [LENNARD_JONES] p_0/k_B:  75.67354 [K], p_1: 3.40250 [A], shift/k_B:  -0.15720980 [K], tailcorrection: no
   O_o2 -     CH2 [LENNARD_JONES] p_0/k_B:  54.49117 [K], p_1: 3.50250 [A], shift/k_B:  -0.13467871 [K], tailcorrection: no
   O_o2 -      CH [LENNARD_JONES] p_0/k_B:  30.02317 [K], p_1: 3.85750 [A], shift/k_B:  -0.13236868 [K], tailcorrection: no
   O_o2 -       C [LENNARD_JONES] p_0/k_B:   6.51294 [K], p_1: 4.71250 [A], shift/k_B:  -0.09520548 [K], tailcorrection: no
  O_com -   O_com [ZERO_POTENTIAL]
  O_com -    N_n2 [ZERO_POTENTIAL]
  O_com -   N_com [ZERO_POTENTIAL]
  O_com -      Ar [ZERO_POTENTIAL]
  O_com -     CH4 [ZERO_POTENTIAL]
  O_com -     CH3 [ZERO_POTENTIAL]
  O_com -     CH2 [ZERO_POTENTIAL]
  O_com -      CH [ZERO_POTENTIAL]
  O_com -       C [ZERO_POTENTIAL]
   N_n2 -    N_n2 [LENNARD_JONES] p_0/k_B:  38.29800 [K], p_1: 3.30600 [A], shift/k_B:  -0.06695388 [K], tailcorrection: no
   N_n2 -   N_com [ZERO_POTENTIAL]
   N_n2 -      Ar [LENNARD_JONES] p_0/k_B:  68.93209 [K], p_1: 3.34300 [A], shift/k_B:  -0.12882767 [K], tailcorrection: no
   N_n2 -     CH4 [LENNARD_JONES] p_0/k_B:  77.91170 [K], p_1: 3.51300 [A], shift/k_B:  -0.19605171 [K], tailcorrection: no
   N_n2 -     CH3 [LENNARD_JONES] p_0/k_B:  64.31317 [K], p_1: 3.53300 [A], shift/k_B:  -0.16743696 [K], tailcorrection: no
   N_n2 -     CH2 [LENNARD_JONES] p_0/k_B:  46.31078 [K], p_1: 3.63300 [A], shift/k_B:  -0.14253201 [K], tailcorrection: no
   N_n2 -      CH [LENNARD_JONES] p_0/k_B:  25.51599 [K], p_1: 3.98800 [A], shift/k_B:  -0.13731894 [K], tailcorrection: no
   N_n2 -       C [LENNARD_JONES] p_0/k_B:   5.53520 [K], p_1: 4.84300 [A], shift/k_B:  -0.09526024 [K], tailcorrection: no
  N_com -   N_com [ZERO_POTENTIAL]
  N_com -      Ar [ZERO_POTENTIAL]
  N_com -     CH4 [ZERO_POTENTIAL]
  N_com -     CH3 [ZERO_POTENTIAL]
  N_com -     CH2 [ZERO_POTENTIAL]
  N_com -      CH [ZERO_POTENTIAL]
  N_com -       C [ZERO_POTENTIAL]
     Ar -      Ar [LENNARD_JONES] p_0/k_B: 124.07000 [K], p_1: 3.38000 [A], shift/k_B:  -0.24769804 [K], tailcorrection: no
     Ar -     CH4 [LENNARD_JONES] p_0/k_B: 140.23229 [K], p_1: 3.55000 [A], shift/k_B:  -0.37575039 [K], tailcorrection: no
     Ar -     CH3 [LENNARD_JONES] p_0/k_B: 115.75647 [K], p_1: 3.57000 [A], shift/k_B:  -0.32079374 [K], tailcorrection: no
     Ar -     CH2 [LENNARD_JONES] p_0/k_B:  83.35418 [K], p_1: 3.67000 [A], shift/k_B:  -0.27260937 [K], tailcorrection: no
     Ar -      CH [LENNARD_JONES] p_0/k_B:  45.92592 [K], p_1: 4.02500 [A], shift/k_B:  -0.26122023 [K], tailcorrection: no
     Ar -       C [LENNARD_JONES] p_0/k_B:   9.96273 [K], p_1: 4.88000 [A], shift/k_B:  -0.17943247 [K], tailcorrection: no
    CH4 -     CH4 [LENNARD_JONES] p_0/k_B: 158.50000 [K], p_1: 3.72000 [A], shift/k_B:  -0.56217796 [K], tailcorrection: no
    CH4 -     CH3 [LENNARD_JONES] p_0/k_B: 130.83577 [K], p_1: 3.74000 [A], shift/k_B:  -0.47921501 [K], tailcorrection: no
    CH4 -     CH2 [LENNARD_JONES] p_0/k_B:  94.21253 [K], p_1: 3.84000 [A], shift/k_B:  -0.40420524 [K], tailcorrection: no
    CH4 -      CH [LENNARD_JONES] p_0/k_B:  51.90857 [K], p_1: 4.19500 [A], shift/k_B:  -0.37827707 [K], tailcorrection: no
    CH4 -       C [LENNARD_JONES] p_0/k_B:  11.26055 [K], p_1: 5.05000 [A], shift/k_B:  -0.24880626 [K], tailcorrection: no
    CH3 -     CH3 [LENNARD_JONES] p_0/k_B: 108.00000 [K], p_1: 3.76000 [A], shift/k_B:  -0.40842485 [K], tailcorrection: no
    CH3 -     CH2 [LENNARD_JONES] p_0/k_B:  77.76889 [K], p_1: 3.86000 [A], shift/k_B:  -0.34420794 [K], tailcorrection: no
    CH3 -      CH [LENNARD_JONES] p_0/k_B:  42.84857 [K], p_1: 4.21500 [A], shift/k_B:  -0.32127575 [K], tailcorrection: no
    CH3 -       C [LENNARD_JONES] p_0/k_B:   9.29516 [K], p_1: 5.07000 [A], shift/k_B:  -0.21028090 [K], tailcorrection: no
    CH2 -     CH2 [LENNARD_JONES] p_0/k_B:  56.00000 [K], p_1: 3.96000 [A], shift/k_B:  -0.28891522 [K], tailcorrection: no
    CH2 -      CH [LENNARD_JONES] p_0/k_B:  30.85450 [K], p_1: 4.31500 [A], shift/k_B:  -0.26621710 [K], tailcorrection: no
    CH2 -       C [LENNARD_JONES] p_0/k_B:   6.69328 [K], p_1: 5.17000 [A], shift/k_B:  -0.17012512 [K], tailcorrection: no
     CH -      CH [LENNARD_JONES] p_0/k_B:  17.00000 [K], p_1: 4.67000 [A], shift/k_B:  -0.23540268 [K], tailcorrection: no
     CH -       C [LENNARD_JONES] p_0/k_B:   3.68782 [K], p_1: 5.52500 [A], shift/k_B:  -0.13918063 [K], tailcorrection: no
      C -       C [LENNARD_JONES] p_0/k_B:   0.80000 [K], p_1: 6.38000 [A], shift/k_B:  -0.07064236 [K], tailcorrection: no


MoleculeDefinitions:
===========================================================================
Component 0 [ethane] (Adsorbate molecule)

	MoleculeDefinitions: ExampleDefinitions
	Component contains no atoms with charge
	Component contains no atoms with point dipoles (polarization)
	Component has a net charge of 0.000000

	Ideal chain Rosenbluth weight: 1
	Ideal chain total energy: 0.000000

	Critical temparure [K]: 305.330000
	Critical pressure [Pa]: 4871800.000000
	Acentric factor [-]: 0.099300

	RXMC partition factor ln(q/V) [ln(A^(-3))]:       0.0000000000

	Vapour=stable, Liquid=metastable

	MolFraction:           1.0000000000 [-]
	Compressibility:       0.0000000000 [-]

	Density of the bulk fluid phase:       0.0000000000 [kg/m^3]


	Amount of excess molecules:       0.0000000000 [-]

	Conversion factor molecules/unit cell -> mol/kg:                inf [-]
	Conversion factor molecules/unit cell -> mg/g:                inf [-]
	Conversion factor molecules/unit cell -> cm^3 STP/gr:                inf [-]
	Conversion factor molecules/unit cell -> cm^3 STP/cm^3:       1.3784916574 [-]
	Conversion factor mol/kg -> cm^3 STP/gr:      22.4139757476 [-]
	Conversion factor mol/kg -> cm^3 STP/cm^3:       0.0000000000 [-]

	Partial pressure: -16605402.00000000000000 [Pa]
	                    -124540.51499999999942 [Torr]
	                       -166.05402000000001 [bar]
	                       -163.88257586972614 [atm]

	Fugacity coefficient:      -1.0000000000 [-]

	Partial fugacity:  16605402.00000000000000 [Pa]
	                     124540.51499999999942 [Torr]
	                        166.05402000000001 [bar]
	                        163.88257586972614 [atm]

	Molecule contains 2 number of atoms
		atom:    0  is of type:   10 [       CH3] (group: 0)
		atom:    1  is of type:   10 [       CH3] (group: 0)

	Molecule contains 0 chirality centers

	Molecule contains 1 number of groups

		group: 0 containing: 2 elements
		-------------------------------------------------
		the group is modelled as flexible, i.e. no constraints
		Mass: 30.069040 [a.u.]
		Mass: 1.849290 [kg/m^3]

		Rotational Degrees of freedom: 0
		Diagonalized inertia vector:       0.0000000000
		                                   0.0000000000
		                                   0.0000000000
		element: 0 atom: 0 [       CH3] Charge:  0.000000 Anisotropy: 0.000000 Connectivity: 1 (1 )
		element: 1 atom: 1 [       CH3] Charge:  0.000000 Anisotropy: 0.000000 Connectivity: 1 (0 )

		Dipole:           0.0000000000 [D]
		Quadrupole:       0.0000000000       0.0000000000       0.0000000000 [D Angstrom]
		Quadrupole tensor [D Angstrom]
				       0.0000000000       0.0000000000       0.0000000000
				       0.0000000000       0.0000000000       0.0000000000
				       0.0000000000       0.0000000000       0.0000000000

	Starting bead for growth               : 0

	Degrees of freedom                     : 0
	Translational degrees of freedom       : 0
	Rotational degrees of freedom          : 0
	Vibrational degrees of freedom         : 0
	Constraint degrees of freedom          : 0

	Number of atoms                        : 2

	Number of constraint bonds             : 0
	Number of constraint bends             : 0
	Number of constraint inversion bends   : 0
	Number of constraint torsions          : 0
	Number of constraint improper torsions : 0
	Number of constraint improper torsions : 0

	Number of bonds                        : 1
	Number of Urey-Bradleys                : 0
	Number of bends                        : 0
	Number of inversion bends              : 0
	Number of torsions                     : 0
	Number of improper torsions            : 0
	Number of improper torsions            : 0

	Number of bond/bond cross terms        : 0
	Number of bond/bend cross terms        : 0
	Number of bend/bend cross terms        : 0
	Number of stretch/torsion cross terms  : 0
	Number of bend/torsion cross terms     : 0

	Number of charges                      : 0
	Number of bond-dipoles                 : 0

	Number of intra Van der Waals                             : 0
	Number of intra charge-charge Coulomb                     : 0
	Number of intra charge-bonddipole Coulomb                 : 0
	Number of intra bonddipole-bonddipole Coulomb             : 0

	Number of excluded intra charge-charge Coulomb                     : 0
	Number of excluded intra charge-bonddipole Coulomb                 : 0
	Number of excluded intra bonddipole-bonddipole Coulomb             : 0

	Number of cbmc-config moves                               : 0

	Particle Moves:             
		ProbabilityTranslationMove:                  32.258065
			TranslationDirection:      XYZ
		Percentage of random translation moves:            0.000000
		Percentage of rotation moves:                      32.258065
		Percentage of random rotation moves:               0.000000
		Percentage of partial reinsertion moves:           0.000000
		Percentage of reinsertion moves:                   32.258065
		Percentage of reinsertion-in-place moves:          0.000000
		Percentage of reinsertion-in-plane moves:          0.000000
		Percentage of identity-change moves:               0.000000
		Percentage of swap (insert/delete) moves:          0.000000
		Percentage of CF swap lambda moves:                0.000000
		Percentage of CB/CFMC swap lambda moves:           0.000000
		Percentage of Widom insertion moves:               0.000000
		Percentage of CF-Widom insertion moves:            0.000000
		Percentage of Gibbs Widom insertion moves:         0.000000
		Percentage of surface-area moves:                  0.000000
		Percentage of Gibbs particle-transfer moves:       0.000000
		Percentage of Gibbs identity-change moves:         0.000000
		Percentage of CF Gibbs lambda-transfer moves:      0.000000
		Percentage of CB/CFMC Gibbs lambda-transfer moves: 0.000000
		Percentage of exchange frac./int. particle moves:  0.000000
		Percentage of fractional mol. to other box moves:  0.000000
		Percentage of lambda-change moves:                 0.000000
		Percentage of fractional to integer moves:         0.000000

	System Moves:
		Percentage of parallel-tempering moves:            0.000000
		Percentage of hyper-parallel-tempering moves:      0.000000
		Percentage of parallel-mol-fraction moves:         0.000000
			   Component A: 0 B: 1
		Percentage of chiral inversion moves:              0.000000
		Percentage of Hybrid-NVE moves:                    0.000000
		Percentage of Hybrid-NPH moves:                    0.000000
		Percentage of Hybrid-NPHPR moves:                  0.000000
		Percentage of volume-change moves:                 3.225806
		Percentage of box-shape-change moves:              0.000000
		Percentage of Gibbs volume-change moves:           0.000000
		Percentage of framework-change moves:              0.000000
		Percentage of framework-shift moves:               0.000000
		Percentage of reactive MC moves:                   0.000000

	Moves are restricted: No
	No biased sampling used for this component

	Number of Bonds: 1
	--------------------------------------------
	Bond interaction 0: A=0 B=1 Type:HARMONIC_BOND
		HARMONIC_BOND: p_0/k_B=96500.000000 [K/A^2], p_1=1.540000   [A]


	number of identity-config changes: 1
	--------------------------------------------
	nr fixed 1: 0 

	Number of pockets blocked in a unitcell: 0
		Pockets are NOT blocked for this component



System Properties
===========================================================================
Unit cell size: 30.000000 30.000000 30.000000
Cell angles (radians)  alpha: 1.570796 beta: 1.570796 gamma: 1.570796
Cell angles (degrees)  alpha: 90.000000 beta: 90.000000 gamma: 90.000000
Number of unitcells [a]: 1
Number of unitcells [b]: 1
Number of unitcells [c]: 1

RECTANGULAR Boundary conditions: alpha=beta=gamma=90 degrees

Cartesian axis A is collinear with crystallographic axis a
Cartesian axis B is collinear with (axb)xA
Cartesian axis C is collinear with (axb)

lengths of cell vectors:
 30.00000  30.00000  30.00000
cosines of cell angles:
  0.00000   0.00000   0.00000
perpendicular cell widths:
 30.00000  30.00000  30.00000
volume of the cell: 27000.000000000000 (A^3)

Orthogonalization matrix Box
Transforms fractional coordinates abc into orthonormal Cartesian coordinates xyz
Deorthogonalization matrix InverseBox
Transforms orthonormal Cartesian coordinates xyz into fractional coordinates xyz

Box[0]:
	   30.000000000000     0.000000000000     0.000000000000
	    0.000000000000    30.000000000000     0.000000000000
	    0.000000000000     0.000000000000    30.000000000000

Inverse box[0]:
	    0.033333333333    -0.000000000000    -0.000000000000
	    0.000000000000     0.033333333333    -0.000000000000
	    0.000000000000     0.000000000000     0.033333333333


Unitcell box[0]:
	   30.000000000000     0.000000000000     0.000000000000
	    0.000000000000    30.000000000000     0.000000000000
	    0.000000000000     0.000000000000    30.000000000000

Unitcell inverse box[0]:
	    0.033333333333    -0.000000000000    -0.000000000000
	    0.000000000000     0.033333333333    -0.000000000000
	    0.000000000000     0.000000000000     0.033333333333

lengths of cell vectors (inverse box):
  0.03333   0.03333   0.03333
cosines of cell angles (inverse box):
 -0.00000  -0.00000  -0.00000
perpendicular cell widths (inverse):
  0.03333   0.03333   0.03333
volume of the cell: 27000.000000000000 (A^3)

No replicas are used
Framework is simulated as 'rigid'
Number of framework atoms: 0
Number of framework atoms in the unit cell: 0
Framework Mass:     0.000000000000 [g/mol]
Framework Density:     0.000000000000 [kg/m^3]                inf [cm^3/g]
Helium void fraction:    0.00000000
Available pore volume:    0.00000000 [A^3]           nan [cm^3/g]
Conversion factor from molecule/unit cell -> kmol/m^3: 0.0615014, kmol/m^3 accesible pore volume: inf

Number Of Frameworks (per system): 0
----------------------------------------------------------------------

Current Atom Status
===========================================================================
Number of framework atoms        : 0
Number of cations molecules      : 0
Number of adsorbate molecules    : 110
Component    0 :  110 molecules
Pseudo Atoms    0 [    UNIT]:    0 atoms
Pseudo Atoms    1 [      He]:    0 atoms
Pseudo Atoms    2 [   C_co2]:    0 atoms
Pseudo Atoms    3 [   O_co2]:    0 atoms
Pseudo Atoms    4 [    O_o2]:    0 atoms
Pseudo Atoms    5 [   O_com]:    0 atoms
Pseudo Atoms    6 [    N_n2]:    0 atoms
Pseudo Atoms    7 [   N_com]:    0 atoms
Pseudo Atoms    8 [      Ar]:    0 atoms
Pseudo Atoms    9 [     CH4]:    0 atoms
Pseudo Atoms   10 [     CH3]:  220 atoms
Pseudo Atoms   11 [     CH2]:    0 atoms
Pseudo Atoms   12 [      CH]:    0 atoms
Pseudo Atoms   13 [       C]:    0 atoms


Current (initial full energy) Energy Status
===========================================================================

Internal energy:
Host stretch energy:                                            0.00000000
Host UreyBradley energy:                                        0.00000000
Host bend energy:                                               0.00000000
Host inversion-bend energy:                                     0.00000000
Host torsion energy:                                            0.00000000
Host improper torsion energy:                                   0.00000000
Host out-of-plane energy:                                       0.00000000
Host stretch/stretch energy:                                    0.00000000
Host bend/bend energy:                                          0.00000000
Host stretch/bend energy:                                       0.00000000
Host stretch/torsion energy:                                    0.00000000
Host bend/torsion energy:                                       0.00000000

Adsorbate stretch energy:                                   13645.91163188
Adsorbate UreyBradley energy:                                   0.00000000
Adsorbate bend energy:                                          0.00000000
Adsorbate inversion-bend energy:                                0.00000000
Adsorbate torsion energy:                                       0.00000000
Adsorbate improper torsion energy:                              0.00000000
Adsorbate out-of-plane energy:                                  0.00000000
Adsorbate stretch/stretch energy:                               0.00000000
Adsorbate bend/bend energy:                                     0.00000000
Adsorbate stretch/bend energy:                                  0.00000000
Adsorbate stretch/torsion energy:                               0.00000000
Adsorbate bend/torsion energy:                                  0.00000000
Adsorbate intra VDW energy:                                     0.00000000
Adsorbate intra charge-charge Coulomb energy:                   0.00000000
Adsorbate intra charge-bonddipole Coulomb energy:               0.00000000
Adsorbate intra bonddipole-bonddipole Coulomb energy:           0.00000000

Cation stretch energy:                                          0.00000000
Cation UreyBradley energy:                                      0.00000000
Cation bend energy:                                             0.00000000
Cation inversion-bend energy:                                   0.00000000
Cation torsion energy:                                          0.00000000
Cation improper torsion energy:                                 0.00000000
Cation out-of-plane energy:                                     0.00000000
Cation stretch/stretch energy:                                  0.00000000
Cation bend/bend energy:                                        0.00000000
Cation stretch/bend energy:                                     0.00000000
Cation stretch/torsion energy:                                  0.00000000
Cation bend/torsion energy:                                     0.00000000
Cation intra VDW energy:                                        0.00000000
Cation intra charge-charge Coulomb energy:                      0.00000000
Cation intra charge-bonddipole Coulomb energy:                  0.00000000
Cation intra bonddipole-bonddipole Coulomb energy:              0.00000000

Host/Host energy:                                             0.00000000
	Host/Host VDW energy:                                         0.00000000
	Host/Host Coulomb energy:                                     0.00000000
	Host/Host charge-charge Real energy:                          0.00000000
	Host/Host charge-charge Fourier energy:                       0.00000000
	Host/Host charge-bonddipole Real energy:                      0.00000000
	Host/Host charge-bonddipole Fourier energy:                   0.00000000
	Host/Host bondipole-bonddipole Real energy:                   0.00000000
	Host/Host bondipole-bonddipole Fourier energy:                0.00000000

Host/Adsorbate energy:                                        0.00000000
	Host/Adsorbate VDW energy:                                    0.00000000
	Host/Adsorbate Coulomb energy:                                0.00000000
	Host/Adsorbate charge-charge Real energy:                     0.00000000
	Host/Adsorbate charge-charge Fourier energy:                  0.00000000
	Host/Adsorbate charge-bonddipole Real energy:                 0.00000000
	Host/Adsorbate charge-bonddipole Fourier energy:              0.00000000
	Host/Adsorbate bondipole-bonddipole Real energy:              0.00000000
	Host/Adsorbate bondipole-bonddipole Fourier energy:           0.00000000

Host/Cation energy:                                           0.00000000
	Host/Cation VDW energy:                                       0.00000000
	Host/Cation Coulomb energy:                                   0.00000000
	Host/Cation charge-charge Real energy:                        0.00000000
	Host/Cation charge-charge Fourier energy:                     0.00000000
	Host/Cation charge-bonddipole Real energy:                    0.00000000
	Host/Cation charge-bonddipole Fourier energy:                 0.00000000
	Host/Cation bondipole-bonddipole Real energy:                 0.00000000
	Host/Cation bondipole-bonddipole Fourier energy:              0.00000000

Adsorbate/Adsorbate energy:                                   -46860.45431853
	Adsorbate/Adsorbate VDW energy:                               -46860.45431853
	Adsorbate/Adsorbate Coulomb energy:                                0.00000000
	Adsorbate/Adsorbate charge-charge Real energy:                     0.00000000
	Adsorbate/Adsorbate charge-charge Fourier energy:                  0.00000000
	Adsorbate/Adsorbate charge-bonddipole Real energy:                 0.00000000
	Adsorbate/Adsorbate charge-bonddipole Fourier energy:              0.00000000
	Adsorbate/Adsorbate bondipole-bonddipole Real energy:              0.00000000
	Adsorbate/Adsorbate bondipole-bonddipole Fourier energy:           0.00000000

Adsorbate/Cation energy:                                           0.00000000
	Adsorbate/Cation VDW energy:                                       0.00000000
	Adsorbate/Cation Coulomb energy:                                   0.00000000
	Adsorbate/Cation charge-charge Real energy:                        0.00000000
	Adsorbate/Cation charge-charge Fourier energy:                     0.00000000
	Adsorbate/Cation charge-bonddipole Real energy:                    0.00000000
	Adsorbate/Cation charge-bonddipole Fourier energy:                 0.00000000
	Adsorbate/Cation bondipole-bonddipole Real energy:                 0.00000000
	Adsorbate/Cation bondipole-bonddipole Fourier energy:              0.00000000

Cation/Cation energy:                                           0.00000000
	Cation/Cation VDW energy:                                       0.00000000
	Cation/Cation Coulomb energy:                                   0.00000000
	Cation/Cation charge-charge Real energy:                        0.00000000
	Cation/Cation charge-charge Fourier energy:                     0.00000000
	Cation/Cation charge-bonddipole Real energy:                    0.00000000
	Cation/Cation charge-bonddipole Fourier energy:                 0.00000000
	Cation/Cation bondipole-bonddipole Real energy:                 0.00000000
	Cation/Cation bondipole-bonddipole Fourier energy:              0.00000000

Polarization energy:
	Host polarization energy:                                     0.00000000
	Adsorbate polarization energy:                                0.00000000
	Cation polarization energy:                                   0.00000000
	Host back-polarization energy:                                     0.00000000
	Adsorbate back-polarization energy:                                0.00000000
	Cation back-polarization energy:                                   0.00000000

Tail-correction energy:                                       0.00000000

Distance constraints energy:                                  0.00000000
Angle constraints energy:                                     0.00000000
Dihedral constraints energy:                                  0.00000000
Inversion-bend constraints energy:                            0.00000000
Out-of-plane distance constraints energy:                     0.00000000
Exclusion constraints energy:                                 0.00000000

===================================================================
Total energy: -33214.542686645415
	Total Van der Waals: -46860.454319
	Total Coulomb: 0.000000

	Total Polarization: 0.000000







+++++++++++++++++++++++++++++++++++++++++++++++++++++++++++++++++++++++++
Starting simulation
+++++++++++++++++++++++++++++++++++++++++++++++++++++++++++++++++++++++++

[Init] Current cycle: 0 out of 1000
========================================================================================================

Net charge: 0 (F: 0, A: 0, C: 0)
Current Box:  30.00000   0.00000   0.00000 [A]
               0.00000  30.00000   0.00000 [A]
               0.00000   0.00000  30.00000 [A]
Box-lengths:  30.00000  30.00000  30.00000 Box-angles:   90.00000  90.00000  90.00000 [degrees]
Volume: 27000.00000 [A^3]

Amount of molecules per component:
----------------------------------------------------------------------------------------------------------------------------------------------------
Component 0 (ethane), current number of integer/fractional/reaction molecules: 110/0/0, density: 203.42198 [kg/m^3]
----------------------------------------------------------------------------------------------------------------------------------------------------
Degrees of freedom: 660 0 660 0
Number of Framework-atoms:      0
Number of Adsorbates:         110 (110 integer, 0 fractional, 0 reaction)
Number of Cations:              0 (0 integer, 0 fractional, 0 reaction

Current total potential energy:            -33214.5426866454 [K]
	Current Host-Host energy:                     0.0000000000 [K]
	Current Host-Adsorbate energy:                0.0000000000 [K]
	Current Host-Cation energy:                   0.0000000000 [K]
	Current Adsorbate-Adsorbate energy:      -46860.4543185300 [K]
	Current Cation-Cation energy:                 0.0000000000 [K]
	Current Adsorbate-Cation energy:              0.0000000000 [K]



[Init] Current cycle: 100 out of 1000
========================================================================================================

Net charge: 0 (F: 0, A: 0, C: 0)
Current Box:  30.17189   0.00000   0.00000 [A]
               0.00000  30.17189   0.00000 [A]
               0.00000   0.00000  30.17189 [A]
Box-lengths:  30.17189  30.17189  30.17189 Box-angles:   90.00000  90.00000  90.00000 [degrees]
Volume: 27466.75364 [A^3]

Amount of molecules per component:
----------------------------------------------------------------------------------------------------------------------------------------------------
Component 0 (ethane), current number of integer/fractional/reaction molecules: 110/0/0, density: 199.96515 [kg/m^3]
----------------------------------------------------------------------------------------------------------------------------------------------------
Degrees of freedom: 660 0 660 0
Number of Framework-atoms:      0
Number of Adsorbates:         110 (110 integer, 0 fractional, 0 reaction)
Number of Cations:              0 (0 integer, 0 fractional, 0 reaction

Current total potential energy:            -45265.3709402621 [K]
	Current Host-Host energy:                     0.0000000000 [K]
	Current Host-Adsorbate energy:                0.0000000000 [K]
	Current Host-Cation energy:                   0.0000000000 [K]
	Current Adsorbate-Adsorbate energy:      -58722.6668943909 [K]
	Current Cation-Cation energy:                 0.0000000000 [K]
	Current Adsorbate-Cation energy:              0.0000000000 [K]



[Init] Current cycle: 200 out of 1000
========================================================================================================

Net charge: 0 (F: 0, A: 0, C: 0)
Current Box:  30.74425   0.00000   0.00000 [A]
               0.00000  30.74425   0.00000 [A]
               0.00000   0.00000  30.74425 [A]
Box-lengths:  30.74425  30.74425  30.74425 Box-angles:   90.00000  90.00000  90.00000 [degrees]
Volume: 29059.72914 [A^3]

Amount of molecules per component:
----------------------------------------------------------------------------------------------------------------------------------------------------
Component 0 (ethane), current number of integer/fractional/reaction molecules: 110/0/0, density: 189.00360 [kg/m^3]
----------------------------------------------------------------------------------------------------------------------------------------------------
Degrees of freedom: 660 0 660 0
Number of Framework-atoms:      0
Number of Adsorbates:         110 (110 integer, 0 fractional, 0 reaction)
Number of Cations:              0 (0 integer, 0 fractional, 0 reaction

Current total potential energy:            -40872.6715292440 [K]
	Current Host-Host energy:                     0.0000000000 [K]
	Current Host-Adsorbate energy:                0.0000000000 [K]
	Current Host-Cation energy:                   0.0000000000 [K]
	Current Adsorbate-Adsorbate energy:      -58371.7379751795 [K]
	Current Cation-Cation energy:                 0.0000000000 [K]
	Current Adsorbate-Cation energy:              0.0000000000 [K]



[Init] Current cycle: 300 out of 1000
========================================================================================================

Net charge: 0 (F: 0, A: 0, C: 0)
Current Box:  29.89835   0.00000   0.00000 [A]
               0.00000  29.89835   0.00000 [A]
               0.00000   0.00000  29.89835 [A]
Box-lengths:  29.89835  29.89835  29.89835 Box-angles:   90.00000  90.00000  90.00000 [degrees]
Volume: 26726.47853 [A^3]

Amount of molecules per component:
----------------------------------------------------------------------------------------------------------------------------------------------------
Component 0 (ethane), current number of integer/fractional/reaction molecules: 110/0/0, density: 205.50382 [kg/m^3]
----------------------------------------------------------------------------------------------------------------------------------------------------
Degrees of freedom: 660 0 660 0
Number of Framework-atoms:      0
Number of Adsorbates:         110 (110 integer, 0 fractional, 0 reaction)
Number of Cations:              0 (0 integer, 0 fractional, 0 reaction

Current total potential energy:            -43657.7051058076 [K]
	Current Host-Host energy:                     0.0000000000 [K]
	Current Host-Adsorbate energy:                0.0000000000 [K]
	Current Host-Cation energy:                   0.0000000000 [K]
	Current Adsorbate-Adsorbate energy:      -63230.4352404252 [K]
	Current Cation-Cation energy:                 0.0000000000 [K]
	Current Adsorbate-Cation energy:              0.0000000000 [K]



[Init] Current cycle: 400 out of 1000
========================================================================================================

Net charge: 0 (F: 0, A: 0, C: 0)
Current Box:  28.35607   0.00000   0.00000 [A]
               0.00000  28.35607   0.00000 [A]
               0.00000   0.00000  28.35607 [A]
Box-lengths:  28.35607  28.35607  28.35607 Box-angles:   90.00000  90.00000  90.00000 [degrees]
Volume: 22800.17183 [A^3]

Amount of molecules per component:
----------------------------------------------------------------------------------------------------------------------------------------------------
Component 0 (ethane), current number of integer/fractional/reaction molecules: 110/0/0, density: 240.89263 [kg/m^3]
----------------------------------------------------------------------------------------------------------------------------------------------------
Degrees of freedom: 660 0 660 0
Number of Framework-atoms:      0
Number of Adsorbates:         110 (110 integer, 0 fractional, 0 reaction)
Number of Cations:              0 (0 integer, 0 fractional, 0 reaction

Current total potential energy:            -50208.5621367785 [K]
	Current Host-Host energy:                     0.0000000000 [K]
	Current Host-Adsorbate energy:                0.0000000000 [K]
	Current Host-Cation energy:                   0.0000000000 [K]
	Current Adsorbate-Adsorbate energy:      -70646.2065161694 [K]
	Current Cation-Cation energy:                 0.0000000000 [K]
	Current Adsorbate-Cation energy:              0.0000000000 [K]



[Init] Current cycle: 500 out of 1000
========================================================================================================

Net charge: 0 (F: 0, A: 0, C: 0)
Current Box:  28.02930   0.00000   0.00000 [A]
               0.00000  28.02930   0.00000 [A]
               0.00000   0.00000  28.02930 [A]
Box-lengths:  28.02930  28.02930  28.02930 Box-angles:   90.00000  90.00000  90.00000 [degrees]
Volume: 22020.99206 [A^3]

Amount of molecules per component:
----------------------------------------------------------------------------------------------------------------------------------------------------
Component 0 (ethane), current number of integer/fractional/reaction molecules: 110/0/0, density: 249.41626 [kg/m^3]
----------------------------------------------------------------------------------------------------------------------------------------------------
Degrees of freedom: 660 0 660 0
Number of Framework-atoms:      0
Number of Adsorbates:         110 (110 integer, 0 fractional, 0 reaction)
Number of Cations:              0 (0 integer, 0 fractional, 0 reaction

Current total potential energy:            -63121.2654161827 [K]
	Current Host-Host energy:                     0.0000000000 [K]
	Current Host-Adsorbate energy:                0.0000000000 [K]
	Current Host-Cation energy:                   0.0000000000 [K]
	Current Adsorbate-Adsorbate energy:      -78733.0929231802 [K]
	Current Cation-Cation energy:                 0.0000000000 [K]
	Current Adsorbate-Cation energy:              0.0000000000 [K]



[Init] Current cycle: 600 out of 1000
========================================================================================================

Net charge: 0 (F: 0, A: 0, C: 0)
Current Box:  28.18845   0.00000   0.00000 [A]
               0.00000  28.18845   0.00000 [A]
               0.00000   0.00000  28.18845 [A]
Box-lengths:  28.18845  28.18845  28.18845 Box-angles:   90.00000  90.00000  90.00000 [degrees]
Volume: 22398.23135 [A^3]

Amount of molecules per component:
----------------------------------------------------------------------------------------------------------------------------------------------------
Component 0 (ethane), current number of integer/fractional/reaction molecules: 110/0/0, density: 245.21550 [kg/m^3]
----------------------------------------------------------------------------------------------------------------------------------------------------
Degrees of freedom: 660 0 660 0
Number of Framework-atoms:      0
Number of Adsorbates:         110 (110 integer, 0 fractional, 0 reaction)
Number of Cations:              0 (0 integer, 0 fractional, 0 reaction

Current total potential energy:            -56783.4646949893 [K]
	Current Host-Host energy:                     0.0000000000 [K]
	Current Host-Adsorbate energy:                0.0000000000 [K]
	Current Host-Cation energy:                   0.0000000000 [K]
	Current Adsorbate-Adsorbate energy:      -73281.8738631459 [K]
	Current Cation-Cation energy:                 0.0000000000 [K]
	Current Adsorbate-Cation energy:              0.0000000000 [K]



[Init] Current cycle: 700 out of 1000
========================================================================================================

Net charge: 0 (F: 0, A: 0, C: 0)
Current Box:  28.10650   0.00000   0.00000 [A]
               0.00000  28.10650   0.00000 [A]
               0.00000   0.00000  28.10650 [A]
Box-lengths:  28.10650  28.10650  28.10650 Box-angles:   90.00000  90.00000  90.00000 [degrees]
Volume: 22203.43331 [A^3]

Amount of molecules per component:
----------------------------------------------------------------------------------------------------------------------------------------------------
Component 0 (ethane), current number of integer/fractional/reaction molecules: 110/0/0, density: 247.36685 [kg/m^3]
----------------------------------------------------------------------------------------------------------------------------------------------------
Degrees of freedom: 660 0 660 0
Number of Framework-atoms:      0
Number of Adsorbates:         110 (110 integer, 0 fractional, 0 reaction)
Number of Cations:              0 (0 integer, 0 fractional, 0 reaction

Current total potential energy:            -60637.0952294982 [K]
	Current Host-Host energy:                     0.0000000000 [K]
	Current Host-Adsorbate energy:                0.0000000000 [K]
	Current Host-Cation energy:                   0.0000000000 [K]
	Current Adsorbate-Adsorbate energy:      -75670.5043283318 [K]
	Current Cation-Cation energy:                 0.0000000000 [K]
	Current Adsorbate-Cation energy:              0.0000000000 [K]



[Init] Current cycle: 800 out of 1000
========================================================================================================

Net charge: 0 (F: 0, A: 0, C: 0)
Current Box:  27.31389   0.00000   0.00000 [A]
               0.00000  27.31389   0.00000 [A]
               0.00000   0.00000  27.31389 [A]
Box-lengths:  27.31389  27.31389  27.31389 Box-angles:   90.00000  90.00000  90.00000 [degrees]
Volume: 20377.48196 [A^3]

Amount of molecules per component:
----------------------------------------------------------------------------------------------------------------------------------------------------
Component 0 (ethane), current number of integer/fractional/reaction molecules: 110/0/0, density: 269.53249 [kg/m^3]
----------------------------------------------------------------------------------------------------------------------------------------------------
Degrees of freedom: 660 0 660 0
Number of Framework-atoms:      0
Number of Adsorbates:         110 (110 integer, 0 fractional, 0 reaction)
Number of Cations:              0 (0 integer, 0 fractional, 0 reaction

Current total potential energy:            -57416.9548574169 [K]
	Current Host-Host energy:                     0.0000000000 [K]
	Current Host-Adsorbate energy:                0.0000000000 [K]
	Current Host-Cation energy:                   0.0000000000 [K]
	Current Adsorbate-Adsorbate energy:      -74496.1444097058 [K]
	Current Cation-Cation energy:                 0.0000000000 [K]
	Current Adsorbate-Cation energy:              0.0000000000 [K]



[Init] Current cycle: 900 out of 1000
========================================================================================================

Net charge: 0 (F: 0, A: 0, C: 0)
Current Box:  28.48712   0.00000   0.00000 [A]
               0.00000  28.48712   0.00000 [A]
               0.00000   0.00000  28.48712 [A]
Box-lengths:  28.48712  28.48712  28.48712 Box-angles:   90.00000  90.00000  90.00000 [degrees]
Volume: 23117.75800 [A^3]

Amount of molecules per component:
----------------------------------------------------------------------------------------------------------------------------------------------------
Component 0 (ethane), current number of integer/fractional/reaction molecules: 110/0/0, density: 237.58331 [kg/m^3]
----------------------------------------------------------------------------------------------------------------------------------------------------
Degrees of freedom: 660 0 660 0
Number of Framework-atoms:      0
Number of Adsorbates:         110 (110 integer, 0 fractional, 0 reaction)
Number of Cations:              0 (0 integer, 0 fractional, 0 reaction

Current total potential energy:            -63002.5805249339 [K]
	Current Host-Host energy:                     0.0000000000 [K]
	Current Host-Adsorbate energy:                0.0000000000 [K]
	Current Host-Cation energy:                   0.0000000000 [K]
	Current Adsorbate-Adsorbate energy:      -76508.8010766919 [K]
	Current Cation-Cation energy:                 0.0000000000 [K]
	Current Adsorbate-Cation energy:              0.0000000000 [K]



Average Properties at Current cycle: 0 out of 5000
========================================================================================

Framework surface area:                nan [m^2/g]        0.0000000000 [m^2/cm^3]       0.0000000000 [A^2]
	Cation surface area:                                nan [m^2/g]        0.0000000000 [m^2/cm^3]       0.0000000000 [A^2]
Compressibility:       0.1845216585 [-]
Henry coefficients
	Component 0: 0 [mol/kg/Pa] (Rosenbluth factor new: 0 [-])
Energy <U_gh>_1-<U_h>_0 from Widom


Current cycle: 0 out of 5000
========================================================================================================

Net charge: 0 (F: 0, A: 0, C: 0)
Current Box:  29.32508   0.00000   0.00000 [A]   Average Box:  29.32508   0.00000   0.00000 [A]
               0.00000  29.32508   0.00000 [A]                  0.00000  29.32508   0.00000 [A]
               0.00000   0.00000  29.32508 [A]                  0.00000   0.00000  29.32508 [A]
Box-lengths:   29.32508  29.32508  29.32508 [A] Average:  29.32508  29.32508  29.32508 [A]
Box-angles:   90.00000  90.00000  90.00000 [degrees] Average:  90.00000  90.00000  90.00000 [degrees]
Volume: 25218.40435 [A^3] Average Volume: 25218.40435 [A^3]

Current Stress:   5.72350  -2.25882   5.39431 [MPa]   Average Stress: 5723.50169 -2258.82438 5394.30855 [kPa]
                 -2.25882   3.40588  -7.59730 [MPa]                   -2258.82438 3405.88030 -7597.30177 [kPa]
                  5.39431  -7.59730   0.80506 [MPa]                   5394.30855 -7597.30177 805.06390 [kPa]
Average pressure:    3311.4819639016 [kPa]      32.6817859748 [atm]      33.1148196390 [bar]
	Ideal gas part:     17946.3050063089 [kPa]     177.1162596231 [atm]     179.4630500631 [bar]
	excess part:       -14634.8230424073 [kPa]    -144.4344736482 [atm]    -146.3482304241 [bar]
	tail correction:       0.0000000000 [kPa]       0.0000000000 [atm]       0.0000000000 [bar]

Amount of molecules per component:
----------------------------------------------------------------------------------------------------------------------------------------------------
Component 0 (ethane), current number of integer/fractional/reaction molecules: 110/0/0 (average 110.00000/  0.00000), density: 217.79306 (average 217.79306) kg/m^3]
----------------------------------------------------------------------------------------------------------------------------------------------------
Degrees of freedom: 660 0 660 0
Number of Framework-atoms:      0
Number of Adsorbates:         110 (110 integer, 0 fractional, 0 reaction)
Number of Cations:              0 (0 integer, 0 fractional, 0 reaction)

Current total potential energy:            -53405.7852347003 [K]  (avg.      -53405.7852347003)
	Current Host-Host energy:                     0.0000000000 [K]  (avg.           0.0000000000)
	Current Host-Adsorbate energy:                0.0000000000 [K]  (avg.           0.0000000000)
	Current Host-Cation energy:                   0.0000000000 [K]  (avg.           0.0000000000)
	Current Adsorbate-Adsorbate energy:      -67039.7004314049 [K]  (avg.      -67039.7004314049)
	Current Cation-Cation energy:                 0.0000000000 [K]  (avg.           0.0000000000)
	Current Adsorbate-Cation energy:              0.0000000000 [K]  (avg.           0.0000000000)



Current cycle: 100 out of 5000
========================================================================================================

Net charge: 0 (F: 0, A: 0, C: 0)
Current Box:  29.36034   0.00000   0.00000 [A]   Average Box:  29.26982   0.00000   0.00000 [A]
               0.00000  29.36034   0.00000 [A]                  0.00000  29.26982   0.00000 [A]
               0.00000   0.00000  29.36034 [A]                  0.00000   0.00000  29.26982 [A]
Box-lengths:   29.36034  29.36034  29.36034 [A] Average:  29.26982  29.26982  29.26982 [A]
Box-angles:   90.00000  90.00000  90.00000 [degrees] Average:  90.00000  90.00000  90.00000 [degrees]
Volume: 25309.49103 [A^3] Average Volume: 25077.96692 [A^3]

Current Stress:  17.25674  10.82032  -0.19019 [MPa]   Average Stress: 6420.26691 -66.18471 -460.32050 [kPa]
                 10.82032  -1.29814   5.57440 [MPa]                   -66.18471 6877.19912 950.17263 [kPa]
                 -0.19019   5.57440  20.65108 [MPa]                   -460.32050 950.17263 5757.15672 [kPa]
Average pressure:    6351.5409164793 [kPa]      62.6848350997 [atm]      63.5154091648 [bar]
	Ideal gas part:     18050.7962729709 [kPa]     178.1475082455 [atm]     180.5079627297 [bar]
	excess part:       -11699.2553564915 [kPa]    -115.4626731457 [atm]    -116.9925535649 [bar]
	tail correction:       0.0000000000 [kPa]       0.0000000000 [atm]       0.0000000000 [bar]

Amount of molecules per component:
----------------------------------------------------------------------------------------------------------------------------------------------------
Component 0 (ethane), current number of integer/fractional/reaction molecules: 110/0/0 (average 110.00000/  0.00000), density: 217.00924 (average 219.06115) kg/m^3]
----------------------------------------------------------------------------------------------------------------------------------------------------
Degrees of freedom: 660 0 660 0
Number of Framework-atoms:      0
Number of Adsorbates:         110 (110 integer, 0 fractional, 0 reaction)
Number of Cations:              0 (0 integer, 0 fractional, 0 reaction)

Current total potential energy:            -50004.0292652676 [K]  (avg.      -48586.5035546723)
	Current Host-Host energy:                     0.0000000000 [K]  (avg.           0.0000000000)
	Current Host-Adsorbate energy:                0.0000000000 [K]  (avg.           0.0000000000)
	Current Host-Cation energy:                   0.0000000000 [K]  (avg.           0.0000000000)
	Current Adsorbate-Adsorbate energy:      -66143.9540191032 [K]  (avg.      -65590.0388438650)
	Current Cation-Cation energy:                 0.0000000000 [K]  (avg.           0.0000000000)
	Current Adsorbate-Cation energy:              0.0000000000 [K]  (avg.           0.0000000000)



Current cycle: 200 out of 5000
========================================================================================================

Net charge: 0 (F: 0, A: 0, C: 0)
Current Box:  30.27390   0.00000   0.00000 [A]   Average Box:  29.56988   0.00000   0.00000 [A]
               0.00000  30.27390   0.00000 [A]                  0.00000  29.56988   0.00000 [A]
               0.00000   0.00000  30.27390 [A]                  0.00000   0.00000  29.56988 [A]
Box-lengths:   30.27390  30.27390  30.27390 [A] Average:  29.56988  29.56988  29.56988 [A]
Box-angles:   90.00000  90.00000  90.00000 [degrees] Average:  90.00000  90.00000  90.00000 [degrees]
Volume: 27746.29160 [A^3] Average Volume: 25869.50025 [A^3]

Current Stress: -12.09009  -0.14428  -3.53785 [MPa]   Average Stress: 6950.89313 207.29009 -702.03043 [kPa]
                 -0.14428  -9.15524   1.35638 [MPa]                   207.29009 5349.37375 -84.94001 [kPa]
                 -3.53785   1.35638  -7.96669 [MPa]                   -702.03043 -84.94001 4038.42264 [kPa]
Average pressure:    5446.2298423468 [kPa]      53.7501094730 [atm]      54.4622984235 [bar]
	Ideal gas part:     17523.2372412121 [kPa]     172.9409054154 [atm]     175.2323724121 [bar]
	excess part:       -12077.0073988653 [kPa]    -119.1907959424 [atm]    -120.7700739887 [bar]
	tail correction:       0.0000000000 [kPa]       0.0000000000 [atm]       0.0000000000 [bar]

Amount of molecules per component:
----------------------------------------------------------------------------------------------------------------------------------------------------
Component 0 (ethane), current number of integer/fractional/reaction molecules: 110/0/0 (average 110.00000/  0.00000), density: 197.95054 (average 212.65879) kg/m^3]
----------------------------------------------------------------------------------------------------------------------------------------------------
Degrees of freedom: 660 0 660 0
Number of Framework-atoms:      0
Number of Adsorbates:         110 (110 integer, 0 fractional, 0 reaction)
Number of Cations:              0 (0 integer, 0 fractional, 0 reaction)

Current total potential energy:            -44430.2077662854 [K]  (avg.      -49103.4339733835)
	Current Host-Host energy:                     0.0000000000 [K]  (avg.           0.0000000000)
	Current Host-Adsorbate energy:                0.0000000000 [K]  (avg.           0.0000000000)
	Current Host-Cation energy:                   0.0000000000 [K]  (avg.           0.0000000000)
	Current Adsorbate-Adsorbate energy:      -62289.6692223086 [K]  (avg.      -65149.2821585133)
	Current Cation-Cation energy:                 0.0000000000 [K]  (avg.           0.0000000000)
	Current Adsorbate-Cation energy:              0.0000000000 [K]  (avg.           0.0000000000)



Current cycle: 300 out of 5000
========================================================================================================

Net charge: 0 (F: 0, A: 0, C: 0)
Current Box:  30.56055   0.00000   0.00000 [A]   Average Box:  29.86721   0.00000   0.00000 [A]
               0.00000  30.56055   0.00000 [A]                  0.00000  29.86721   0.00000 [A]
               0.00000   0.00000  30.56055 [A]                  0.00000   0.00000  29.86721 [A]
Box-lengths:   30.56055  30.56055  30.56055 [A] Average:  29.86721  29.86721  29.86721 [A]
Box-angles:   90.00000  90.00000  90.00000 [degrees] Average:  90.00000  90.00000  90.00000 [degrees]
Volume: 28541.93943 [A^3] Average Volume: 26669.05452 [A^3]

Current Stress:   8.20541  -2.35571  -2.66747 [MPa]   Average Stress: 6424.12541 146.79488 -316.54713 [kPa]
                 -2.35571   9.79524   0.62402 [MPa]                   146.79488 5362.01430 473.77338 [kPa]
                 -2.66747   0.62402   4.43434 [MPa]                   -316.54713 473.77338 4531.00864 [kPa]
Average pressure:    5439.0494502376 [kPa]      53.6792445126 [atm]      54.3904945024 [bar]
	Ideal gas part:     17019.8854936203 [kPa]     167.9732099050 [atm]     170.1988549362 [bar]
	excess part:       -11580.8360433828 [kPa]    -114.2939653924 [atm]    -115.8083604338 [bar]
	tail correction:       0.0000000000 [kPa]       0.0000000000 [atm]       0.0000000000 [bar]

Amount of molecules per component:
----------------------------------------------------------------------------------------------------------------------------------------------------
Component 0 (ethane), current number of integer/fractional/reaction molecules: 110/0/0 (average 110.00000/  0.00000), density: 192.43238 (average 206.55020) kg/m^3]
----------------------------------------------------------------------------------------------------------------------------------------------------
Degrees of freedom: 660 0 660 0
Number of Framework-atoms:      0
Number of Adsorbates:         110 (110 integer, 0 fractional, 0 reaction)
Number of Cations:              0 (0 integer, 0 fractional, 0 reaction)

Current total potential energy:            -42734.8381227375 [K]  (avg.      -47438.6079321040)
	Current Host-Host energy:                     0.0000000000 [K]  (avg.           0.0000000000)
	Current Host-Adsorbate energy:                0.0000000000 [K]  (avg.           0.0000000000)
	Current Host-Cation energy:                   0.0000000000 [K]  (avg.           0.0000000000)
	Current Adsorbate-Adsorbate energy:      -60083.5020904729 [K]  (avg.      -63683.1144371014)
	Current Cation-Cation energy:                 0.0000000000 [K]  (avg.           0.0000000000)
	Current Adsorbate-Cation energy:              0.0000000000 [K]  (avg.           0.0000000000)



Current cycle: 400 out of 5000
========================================================================================================

Net charge: 0 (F: 0, A: 0, C: 0)
Current Box:  29.68849   0.00000   0.00000 [A]   Average Box:  29.87162   0.00000   0.00000 [A]
               0.00000  29.68849   0.00000 [A]                  0.00000  29.87162   0.00000 [A]
               0.00000   0.00000  29.68849 [A]                  0.00000   0.00000  29.87162 [A]
Box-lengths:   29.68849  29.68849  29.68849 [A] Average:  29.87162  29.87162  29.87162 [A]
Box-angles:   90.00000  90.00000  90.00000 [degrees] Average:  90.00000  90.00000  90.00000 [degrees]
Volume: 26167.63503 [A^3] Average Volume: 26675.93335 [A^3]

Current Stress:   5.43762  -1.55122  -1.75056 [MPa]   Average Stress: 6229.21518 322.90613 111.67433 [kPa]
                 -1.55122   1.36422  -0.35888 [MPa]                   322.90613 4978.16107 327.46872 [kPa]
                 -1.75056  -0.35888   3.61762 [MPa]                   111.67433 327.46872 4690.97179 [kPa]
Average pressure:    5299.4493461054 [kPa]      52.3014986045 [atm]      52.9944934611 [bar]
	Ideal gas part:     17006.0502420364 [kPa]     167.8366665881 [atm]     170.0605024204 [bar]
	excess part:       -11706.6008959310 [kPa]    -115.5351679835 [atm]    -117.0660089593 [bar]
	tail correction:       0.0000000000 [kPa]       0.0000000000 [atm]       0.0000000000 [bar]

Amount of molecules per component:
----------------------------------------------------------------------------------------------------------------------------------------------------
Component 0 (ethane), current number of integer/fractional/reaction molecules: 110/0/0 (average 110.00000/  0.00000), density: 209.89262 (average 206.38230) kg/m^3]
----------------------------------------------------------------------------------------------------------------------------------------------------
Degrees of freedom: 660 0 660 0
Number of Framework-atoms:      0
Number of Adsorbates:         110 (110 integer, 0 fractional, 0 reaction)
Number of Cations:              0 (0 integer, 0 fractional, 0 reaction)

Current total potential energy:            -48610.5243016776 [K]  (avg.      -47657.2390434571)
	Current Host-Host energy:                     0.0000000000 [K]  (avg.           0.0000000000)
	Current Host-Adsorbate energy:                0.0000000000 [K]  (avg.           0.0000000000)
	Current Host-Cation energy:                   0.0000000000 [K]  (avg.           0.0000000000)
	Current Adsorbate-Adsorbate energy:      -63196.8356629279 [K]  (avg.      -64018.9389602520)
	Current Cation-Cation energy:                 0.0000000000 [K]  (avg.           0.0000000000)
	Current Adsorbate-Cation energy:              0.0000000000 [K]  (avg.           0.0000000000)



Current cycle: 500 out of 5000
========================================================================================================

Net charge: 0 (F: 0, A: 0, C: 0)
Current Box:  29.10089   0.00000   0.00000 [A]   Average Box:  29.74070   0.00000   0.00000 [A]
               0.00000  29.10089   0.00000 [A]                  0.00000  29.74070   0.00000 [A]
               0.00000   0.00000  29.10089 [A]                  0.00000   0.00000  29.74070 [A]
Box-lengths:   29.10089  29.10089  29.10089 [A] Average:  29.74070  29.74070  29.74070 [A]
Box-angles:   90.00000  90.00000  90.00000 [degrees] Average:  90.00000  90.00000  90.00000 [degrees]
Volume: 24644.42731 [A^3] Average Volume: 26329.74839 [A^3]

Current Stress:  14.62716  -6.90901  -1.26006 [MPa]   Average Stress: 5720.44684  23.64940 -20.80732 [kPa]
                 -6.90901  12.24376  -1.15330 [MPa]                    23.64940 4468.05886 486.26897 [kPa]
                 -1.26006  -1.15330  -0.77110 [MPa]                   -20.80732 486.26897 4473.70137 [kPa]
Average pressure:    4887.4023543190 [kPa]      48.2349109728 [atm]      48.8740235432 [bar]
	Ideal gas part:     17235.3335141543 [kPa]     170.0995165473 [atm]     172.3533351415 [bar]
	excess part:       -12347.9311598353 [kPa]    -121.8646055745 [atm]    -123.4793115984 [bar]
	tail correction:       0.0000000000 [kPa]       0.0000000000 [atm]       0.0000000000 [bar]

Amount of molecules per component:
----------------------------------------------------------------------------------------------------------------------------------------------------
Component 0 (ethane), current number of integer/fractional/reaction molecules: 110/0/0 (average 110.00000/  0.00000), density: 222.86553 (average 209.16484) kg/m^3]
----------------------------------------------------------------------------------------------------------------------------------------------------
Degrees of freedom: 660 0 660 0
Number of Framework-atoms:      0
Number of Adsorbates:         110 (110 integer, 0 fractional, 0 reaction)
Number of Cations:              0 (0 integer, 0 fractional, 0 reaction)

Current total potential energy:            -42589.9429340056 [K]  (avg.      -48710.7133390748)
	Current Host-Host energy:                     0.0000000000 [K]  (avg.           0.0000000000)
	Current Host-Adsorbate energy:                0.0000000000 [K]  (avg.           0.0000000000)
	Current Host-Cation energy:                   0.0000000000 [K]  (avg.           0.0000000000)
	Current Adsorbate-Adsorbate energy:      -65885.5039489478 [K]  (avg.      -64882.4207736257)
	Current Cation-Cation energy:                 0.0000000000 [K]  (avg.           0.0000000000)
	Current Adsorbate-Cation energy:              0.0000000000 [K]  (avg.           0.0000000000)



Current cycle: 600 out of 5000
========================================================================================================

Net charge: 0 (F: 0, A: 0, C: 0)
Current Box:  28.21863   0.00000   0.00000 [A]   Average Box:  29.57324   0.00000   0.00000 [A]
               0.00000  28.21863   0.00000 [A]                  0.00000  29.57324   0.00000 [A]
               0.00000   0.00000  28.21863 [A]                  0.00000   0.00000  29.57324 [A]
Box-lengths:   28.21863  28.21863  28.21863 [A] Average:  29.57324  29.57324  29.57324 [A]
Box-angles:   90.00000  90.00000  90.00000 [degrees] Average:  90.00000  90.00000  90.00000 [degrees]
Volume: 22470.24033 [A^3] Average Volume: 25897.34364 [A^3]

Current Stress:  20.87340   1.40948   7.43932 [MPa]   Average Stress: 5539.39811  77.34648  50.76724 [kPa]
                  1.40948  10.41731  -2.11055 [MPa]                    77.34648 4335.43618 437.89847 [kPa]
                  7.43932  -2.11055  22.30942 [MPa]                    50.76724 437.89847 4238.49600 [kPa]
Average pressure:    4704.4434294776 [kPa]      46.4292467750 [atm]      47.0444342948 [bar]
	Ideal gas part:     17543.3551624004 [kPa]     173.1394538604 [atm]     175.4335516240 [bar]
	excess part:       -12838.9117329228 [kPa]    -126.7102070853 [atm]    -128.3891173292 [bar]
	tail correction:       0.0000000000 [kPa]       0.0000000000 [atm]       0.0000000000 [bar]

Amount of molecules per component:
----------------------------------------------------------------------------------------------------------------------------------------------------
Component 0 (ethane), current number of integer/fractional/reaction molecules: 110/0/0 (average 110.00000/  0.00000), density: 244.42967 (average 212.90294) kg/m^3]
----------------------------------------------------------------------------------------------------------------------------------------------------
Degrees of freedom: 660 0 660 0
Number of Framework-atoms:      0
Number of Adsorbates:         110 (110 integer, 0 fractional, 0 reaction)
Number of Cations:              0 (0 integer, 0 fractional, 0 reaction)

Current total potential energy:            -50789.1739558553 [K]  (avg.      -49447.9305733998)
	Current Host-Host energy:                     0.0000000000 [K]  (avg.           0.0000000000)
	Current Host-Adsorbate energy:                0.0000000000 [K]  (avg.           0.0000000000)
	Current Host-Cation energy:                   0.0000000000 [K]  (avg.           0.0000000000)
	Current Adsorbate-Adsorbate energy:      -68309.7005252757 [K]  (avg.      -65682.6980410553)
	Current Cation-Cation energy:                 0.0000000000 [K]  (avg.           0.0000000000)
	Current Adsorbate-Cation energy:              0.0000000000 [K]  (avg.           0.0000000000)



[...]
	Block[ 3]            0.00000 [K]
	Block[ 4]            0.00000 [K]
	------------------------------------------------------------------------------
	Average              0.00000 [K] +/-            0.00000 [K]

Average Cation Bend angle inversion energy:
===========================================
	Block[ 0]            0.00000 [K]
	Block[ 1]            0.00000 [K]
	Block[ 2]            0.00000 [K]
	Block[ 3]            0.00000 [K]
	Block[ 4]            0.00000 [K]
	------------------------------------------------------------------------------
	Average              0.00000 [K] +/-            0.00000 [K]

Average Cation Torsion energy:
==============================
	Block[ 0]            0.00000 [K]
	Block[ 1]            0.00000 [K]
	Block[ 2]            0.00000 [K]
	Block[ 3]            0.00000 [K]
	Block[ 4]            0.00000 [K]
	------------------------------------------------------------------------------
	Average              0.00000 [K] +/-            0.00000 [K]

Average Cation Improper Torsion energy:
=======================================
	Block[ 0]            0.00000 [K]
	Block[ 1]            0.00000 [K]
	Block[ 2]            0.00000 [K]
	Block[ 3]            0.00000 [K]
	Block[ 4]            0.00000 [K]
	------------------------------------------------------------------------------
	Average              0.00000 [K] +/-            0.00000 [K]

Average Cation Bond-Bond cross term energy:
=================================================
	Block[ 0]            0.00000 [K]
	Block[ 1]            0.00000 [K]
	Block[ 2]            0.00000 [K]
	Block[ 3]            0.00000 [K]
	Block[ 4]            0.00000 [K]
	------------------------------------------------------------------------------
	Average              0.00000 [K] +/-            0.00000 [K]

Average Cation Bend-Bend cross term energy:
===========================================
	Block[ 0]            0.00000 [K]
	Block[ 1]            0.00000 [K]
	Block[ 2]            0.00000 [K]
	Block[ 3]            0.00000 [K]
	Block[ 4]            0.00000 [K]
	------------------------------------------------------------------------------
	Average              0.00000 [K] +/-            0.00000 [K]

Average Cation Bond-Bend cross term energy:
==============================================
	Block[ 0]            0.00000 [K]
	Block[ 1]            0.00000 [K]
	Block[ 2]            0.00000 [K]
	Block[ 3]            0.00000 [K]
	Block[ 4]            0.00000 [K]
	------------------------------------------------------------------------------
	Average              0.00000 [K] +/-            0.00000 [K]

Average Cation Bond-Torsion cross term energy:
==============================================
	Block[ 0]            0.00000 [K]
	Block[ 1]            0.00000 [K]
	Block[ 2]            0.00000 [K]
	Block[ 3]            0.00000 [K]
	Block[ 4]            0.00000 [K]
	------------------------------------------------------------------------------
	Average              0.00000 [K] +/-            0.00000 [K]

Average Cation Bend-Torsion cross term energy:
==============================================
	Block[ 0]            0.00000 [K]
	Block[ 1]            0.00000 [K]
	Block[ 2]            0.00000 [K]
	Block[ 3]            0.00000 [K]
	Block[ 4]            0.00000 [K]
	------------------------------------------------------------------------------
	Average              0.00000 [K] +/-            0.00000 [K]

Average Cation Intra Van der Waals energy:
==========================================
	Block[ 0]            0.00000 [K]
	Block[ 1]            0.00000 [K]
	Block[ 2]            0.00000 [K]
	Block[ 3]            0.00000 [K]
	Block[ 4]            0.00000 [K]
	------------------------------------------------------------------------------
	Average              0.00000 [K] +/-            0.00000 [K]

Average Cation Intra charge-charge Coulomb energy:
====================================
	Block[ 0]            0.00000 [K]
	Block[ 1]            0.00000 [K]
	Block[ 2]            0.00000 [K]
	Block[ 3]            0.00000 [K]
	Block[ 4]            0.00000 [K]
	------------------------------------------------------------------------------
	Average              0.00000 [K] +/-            0.00000 [K]

Average Cation Intra charge-bonddipole Coulomb energy:
====================================
	Block[ 0]            0.00000 [K]
	Block[ 1]            0.00000 [K]
	Block[ 2]            0.00000 [K]
	Block[ 3]            0.00000 [K]
	Block[ 4]            0.00000 [K]
	------------------------------------------------------------------------------
	Average              0.00000 [K] +/-            0.00000 [K]

Average Cation Intra bonddipole-bonddipole Coulomb energy:
====================================
	Block[ 0]            0.00000 [K]
	Block[ 1]            0.00000 [K]
	Block[ 2]            0.00000 [K]
	Block[ 3]            0.00000 [K]
	Block[ 4]            0.00000 [K]
	------------------------------------------------------------------------------
	Average              0.00000 [K] +/-            0.00000 [K]

Average Host-Host energy:
=========================
	Block[ 0] 0.00000            Van der Waals: 0.00000            Coulomb: 0.00000            [K]
	Block[ 1] 0.00000            Van der Waals: 0.00000            Coulomb: 0.00000            [K]
	Block[ 2] 0.00000            Van der Waals: 0.00000            Coulomb: 0.00000            [K]
	Block[ 3] 0.00000            Van der Waals: 0.00000            Coulomb: 0.00000            [K]
	Block[ 4] 0.00000            Van der Waals: 0.00000            Coulomb: 0.00000            [K]
	------------------------------------------------------------------------------
	Average   0.00000            Van der Waals: 0.000000           Coulomb: 0.00000            [K]
	      +/- 0.00000                       +/- 0.000000                +/- 0.00000            [K]

Average Adsorbate-Adsorbate energy:
===================================
	Block[ 0] -68098.81605       Van der Waals: -68098.81605       Coulomb: 0.00000            [K]
	Block[ 1] -74961.17415       Van der Waals: -74961.17415       Coulomb: 0.00000            [K]
	Block[ 2] -69306.30518       Van der Waals: -69306.30518       Coulomb: 0.00000            [K]
	Block[ 3] -62565.15304       Van der Waals: -62565.15304       Coulomb: 0.00000            [K]
	Block[ 4] -58796.43731       Van der Waals: -58796.43731       Coulomb: 0.00000            [K]
	------------------------------------------------------------------------------
	Average   -66745.57715       Van der Waals: -66745.577146      Coulomb: 0.00000            [K]
	      +/- 7766.58591                    +/- 7766.585905             +/- 0.00000            [K]

Average Cation-Cation energy:
=============================
	Block[ 0] 0.00000            Van der Waals: 0.00000            Coulomb: 0.00000            [K]
	Block[ 1] 0.00000            Van der Waals: 0.00000            Coulomb: 0.00000            [K]
	Block[ 2] 0.00000            Van der Waals: 0.00000            Coulomb: 0.00000            [K]
	Block[ 3] 0.00000            Van der Waals: 0.00000            Coulomb: 0.00000            [K]
	Block[ 4] 0.00000            Van der Waals: 0.00000            Coulomb: 0.00000            [K]
	------------------------------------------------------------------------------
	Average   0.00000            Van der Waals: 0.000000           Coulomb: 0.00000            [K]
	      +/- 0.00000                       +/- 0.000000                +/- 0.00000            [K]

Average Host-Adsorbate energy:
==============================
	Block[ 0] 0.00000            Van der Waals: 0.00000            Coulomb: 0.00000            [K]
	Block[ 1] 0.00000            Van der Waals: 0.00000            Coulomb: 0.00000            [K]
	Block[ 2] 0.00000            Van der Waals: 0.00000            Coulomb: 0.00000            [K]
	Block[ 3] 0.00000            Van der Waals: 0.00000            Coulomb: 0.00000            [K]
	Block[ 4] 0.00000            Van der Waals: 0.00000            Coulomb: 0.00000            [K]
	------------------------------------------------------------------------------
	Average   0.00000            Van der Waals: 0.000000           Coulomb: 0.00000            [K]
	      +/- 0.00000                       +/- 0.000000                +/- 0.00000            [K]

Average Host-Cation energy:
===========================
	Block[ 0] 0.00000            Van der Waals: 0.00000            Coulomb: 0.00000            [K]
	Block[ 1] 0.00000            Van der Waals: 0.00000            Coulomb: 0.00000            [K]
	Block[ 2] 0.00000            Van der Waals: 0.00000            Coulomb: 0.00000            [K]
	Block[ 3] 0.00000            Van der Waals: 0.00000            Coulomb: 0.00000            [K]
	Block[ 4] 0.00000            Van der Waals: 0.00000            Coulomb: 0.00000            [K]
	------------------------------------------------------------------------------
	Average   0.00000            Van der Waals: 0.000000           Coulomb: 0.00000            [K]
	      +/- 0.00000                       +/- 0.000000                +/- 0.00000            [K]

Average Adsorbate-Cation energy:
================================
	Block[ 0] 0.00000            Van der Waals: 0.00000            Coulomb: 0.00000            [K]
	Block[ 1] 0.00000            Van der Waals: 0.00000            Coulomb: 0.00000            [K]
	Block[ 2] 0.00000            Van der Waals: 0.00000            Coulomb: 0.00000            [K]
	Block[ 3] 0.00000            Van der Waals: 0.00000            Coulomb: 0.00000            [K]
	Block[ 4] 0.00000            Van der Waals: 0.00000            Coulomb: 0.00000            [K]
	------------------------------------------------------------------------------
	Average   0.00000            Van der Waals: 0.000000           Coulomb: 0.00000            [K]
	      +/- 0.00000                       +/- 0.000000                +/- 0.00000            [K]

Host polarization energy:
=======================
	Block[ 0]            0.00000 [K]
	Block[ 1]            0.00000 [K]
	Block[ 2]            0.00000 [K]
	Block[ 3]            0.00000 [K]
	Block[ 4]            0.00000 [K]
	------------------------------------------------------------------------------
	Average              0.00000 [K] +/-            0.00000 [K]

Adsorbate polarization energy:
=======================
	Block[ 0]            0.00000 [K]
	Block[ 1]            0.00000 [K]
	Block[ 2]            0.00000 [K]
	Block[ 3]            0.00000 [K]
	Block[ 4]            0.00000 [K]
	------------------------------------------------------------------------------
	Average              0.00000 [K] +/-            0.00000 [K]

Cation polarization energy:
=======================
	Block[ 0]            0.00000 [K]
	Block[ 1]            0.00000 [K]
	Block[ 2]            0.00000 [K]
	Block[ 3]            0.00000 [K]
	Block[ 4]            0.00000 [K]
	------------------------------------------------------------------------------
	Average              0.00000 [K] +/-            0.00000 [K]

Host back-polarization energy:
=======================
	Block[ 0]            0.00000 [K]
	Block[ 1]            0.00000 [K]
	Block[ 2]            0.00000 [K]
	Block[ 3]            0.00000 [K]
	Block[ 4]            0.00000 [K]
	------------------------------------------------------------------------------
	Average              0.00000 [K] +/-            0.00000 [K]

Adsorbate back-polarization energy:
=======================
	Block[ 0]            0.00000 [K]
	Block[ 1]            0.00000 [K]
	Block[ 2]            0.00000 [K]
	Block[ 3]            0.00000 [K]
	Block[ 4]            0.00000 [K]
	------------------------------------------------------------------------------
	Average              0.00000 [K] +/-            0.00000 [K]

Cation back-polarization energy:
=======================
	Block[ 0]            0.00000 [K]
	Block[ 1]            0.00000 [K]
	Block[ 2]            0.00000 [K]
	Block[ 3]            0.00000 [K]
	Block[ 4]            0.00000 [K]
	------------------------------------------------------------------------------
	Average              0.00000 [K] +/-            0.00000 [K]

Tail-correction energy:
=======================
	Block[ 0]            0.00000 [K]
	Block[ 1]            0.00000 [K]
	Block[ 2]            0.00000 [K]
	Block[ 3]            0.00000 [K]
	Block[ 4]            0.00000 [K]
	------------------------------------------------------------------------------
	Average              0.00000 [K] +/-            0.00000 [K]

Distance-constraints energy:
=======================
	Block[ 0]            0.00000 [K]
	Block[ 1]            0.00000 [K]
	Block[ 2]            0.00000 [K]
	Block[ 3]            0.00000 [K]
	Block[ 4]            0.00000 [K]
	------------------------------------------------------------------------------
	Average              0.00000 [K] +/-            0.00000 [K]

Angle-constraints energy:
=======================
	Block[ 0]            0.00000 [K]
	Block[ 1]            0.00000 [K]
	Block[ 2]            0.00000 [K]
	Block[ 3]            0.00000 [K]
	Block[ 4]            0.00000 [K]
	------------------------------------------------------------------------------
	Average              0.00000 [K] +/-            0.00000 [K]

Dihedral-constraints energy:
=======================
	Block[ 0]            0.00000 [K]
	Block[ 1]            0.00000 [K]
	Block[ 2]            0.00000 [K]
	Block[ 3]            0.00000 [K]
	Block[ 4]            0.00000 [K]
	------------------------------------------------------------------------------
	Average              0.00000 [K] +/-            0.00000 [K]

Inversion-bend constraints energy:
=======================
	Block[ 0]            0.00000 [K]
	Block[ 1]            0.00000 [K]
	Block[ 2]            0.00000 [K]
	Block[ 3]            0.00000 [K]
	Block[ 4]            0.00000 [K]
	------------------------------------------------------------------------------
	Average              0.00000 [K] +/-            0.00000 [K]

Out-of-plane-distance constraints energy:
=======================
	Block[ 0]            0.00000 [K]
	Block[ 1]            0.00000 [K]
	Block[ 2]            0.00000 [K]
	Block[ 3]            0.00000 [K]
	Block[ 4]            0.00000 [K]
	------------------------------------------------------------------------------
	Average              0.00000 [K] +/-            0.00000 [K]

Exclusion-constraints energy:
=======================
	Block[ 0]            0.00000 [K]
	Block[ 1]            0.00000 [K]
	Block[ 2]            0.00000 [K]
	Block[ 3]            0.00000 [K]
	Block[ 4]            0.00000 [K]
	------------------------------------------------------------------------------
	Average              0.00000 [K] +/-            0.00000 [K]

Total energy:
=============
	Block[ 0]       -52022.41584 [K]
	Block[ 1]       -58351.90629 [K]
	Block[ 2]       -52687.98208 [K]
	Block[ 3]       -46182.59048 [K]
	Block[ 4]       -42293.75321 [K]
	------------------------------------------------------------------------------
	Average         -50307.72958 [K] +/-         7716.95845 [K]

Number of molecules:
====================

Component 0 [ethane]
-------------------------------------------------------------
	Block[ 0] 110.00000          [-]
	Block[ 1] 110.00000          [-]
	Block[ 2] 110.00000          [-]
	Block[ 3] 110.00000          [-]
	Block[ 4] 110.00000          [-]
	------------------------------------------------------------------------------
	Average loading absolute                            110.0000000000 +/-       0.0000000000 [-]
	Average loading absolute [molecules/unit cell]      110.0000000000 +/-       0.0000000000 [-]
	Average loading absolute [mol/kg framework]                           inf +/-                nan [-]
	Average loading absolute [milligram/gram framework]                   inf +/-                nan [-]
	Average loading absolute [cm^3 (STP)/gr framework]                    inf +/-                nan [-]
	Average loading absolute [cm^3 (STP)/cm^3 framework]       151.6340823092 +/-       0.0000000000 [-]

	Block[ 0] 110.00000          [-]
	Block[ 1] 110.00000          [-]
	Block[ 2] 110.00000          [-]
	Block[ 3] 110.00000          [-]
	Block[ 4] 110.00000          [-]
	------------------------------------------------------------------------------
	Average loading excess                            110.0000000000 +/-       0.0000000000 [-]
	Average loading excess [molecules/unit cell]      110.0000000000 +/-       0.0000000000 [-]
	Average loading excess [mol/kg framework]                             inf +/-                nan [-]
	Average loading excess [milligram/gram framework]                     inf +/-                nan [-]
	Average loading excess [cm^3 (STP)/gr framework]                      inf +/-                nan [-]
	Average loading excess [cm^3 (STP)/cm^3 framework]         151.6340823092 +/-       0.0000000000 [-]


Average Widom Rosenbluth factor:
================================
	Block[ 0] 0 [-]
	Block[ 1] 0 [-]
	Block[ 2] 0 [-]
	Block[ 3] 0 [-]
	Block[ 4] 0 [-]
	------------------------------------------------------------------------------
	[ethane] Average Widom Rosenbluth-weight:   0 +/- 0.000000 [-]

Average Widom chemical potential:
=================================
	Block[ 0] 0 [-]
	Block[ 1] 0 [-]
	Block[ 2] 0 [-]
	Block[ 3] 0 [-]
	Block[ 4] 0 [-]
	------------------------------------------------------------------------------
	[ethane] Average chemical potential:   0 +/- 0.000000 [K]

Average Widom Ideal-gas contribution:
=====================================
	Block[ 0] 0 [-]
	Block[ 1] 0 [-]
	Block[ 2] 0 [-]
	Block[ 3] 0 [-]
	Block[ 4] 0 [-]
	------------------------------------------------------------------------------
	[ethane] Average Widom Ideal-gas chemical potential:   0 +/- 0.000000 [-]

Average Widom excess contribution:
==================================
	Block[ 0] 0 [-]
	Block[ 1] 0 [-]
	Block[ 2] 0 [-]
	Block[ 3] 0 [-]
	Block[ 4] 0 [-]
	------------------------------------------------------------------------------
	[ethane] Average Widom excess chemical potential:   0 +/- 0.000000 [-]

Average Gibbs Widom Rosenbluth factor:
======================================
	Block[ 0] 0 [-]
	Block[ 1] 0 [-]
	Block[ 2] 0 [-]
	Block[ 3] 0 [-]
	Block[ 4] 0 [-]
	------------------------------------------------------------------------------
	[ethane] Average Gibbs Widom Rosenbluth-weight:   0 +/- 0.000000 [-]

Average Gibbs Widom chemical potential:
=======================================
	Block[ 0] 0 [-]
	Block[ 1] 0 [-]
	Block[ 2] 0 [-]
	Block[ 3] 0 [-]
	Block[ 4] 0 [-]
	------------------------------------------------------------------------------
	[ethane] Average Gibbs chemical potential:   0 +/- 0.000000 [K]

Average Gibbs Widom Ideal-gas contribution:
===========================================
	Block[ 0] 0 [-]
	Block[ 1] 0 [-]
	Block[ 2] 0 [-]
	Block[ 3] 0 [-]
	Block[ 4] 0 [-]
	------------------------------------------------------------------------------
	[ethane] Average Gibbs Ideal-gas chemical potential:   0 +/- 0.000000 [-]

Average Gibbs Widom excess contribution:
===========================================
	Block[ 0] 0 [-]
	Block[ 1] 0 [-]
	Block[ 2] 0 [-]
	Block[ 3] 0 [-]
	Block[ 4] 0 [-]
	------------------------------------------------------------------------------
	[ethane] Average Gibbs excess chemical potential:   0 +/- 0.000000 [-]

Average Henry coefficient:
==========================
	Block[ 0] 0 [mol/kg/Pa]
	Block[ 1] 0 [mol/kg/Pa]
	Block[ 2] 0 [mol/kg/Pa]
	Block[ 3] 0 [mol/kg/Pa]
	Block[ 4] 0 [mol/kg/Pa]
	------------------------------------------------------------------------------
	[ethane] Average Henry coefficient:  0 +/- 0 [mol/kg/Pa]

Average adsorption energy <U_gh>_1-<U_h>_0 obtained from Widom-insertion:
(Note: the total heat of adsorption is dH=<U_gh>_1-<U_h>_0 - <U_g> - RT)
=========================================================================

Simulation finished,  0 warnings


Tue May 17 09:40:29 2022
Simulation finished on Tuesday, May 17.
The end time was 09:40 AM.

