# vtk DataFile Version 1.0
Cube
ASCII

DATASET POLYDATA
POINTS 544 float
8.551857 19.858076 5.581532
9.851392 19.629964 6.361885
0.644140 13.420759 18.064161
1.732792 14.479356 17.639428
30.644140 13.420759 18.064161
31.732792 14.479356 17.639428
24.504176 -1.854075 2.855856
25.158453 -0.502434 2.355490
24.504176 -1.854075 32.855856
25.158453 -0.502434 32.355490
24.504176 28.145925 2.855856
25.158453 29.497566 2.355490
24.504176 28.145925 32.855856
25.158453 29.497566 32.355490
10.547244 4.648786 23.247614
10.076963 3.924515 21.861912
-0.041767 24.934728 16.935148
0.322256 26.040256 17.999472
29.958233 24.934728 16.935148
30.322256 26.040256 17.999472
11.690380 -2.121131 18.714351
10.494763 -2.378146 17.956609
11.690380 27.878869 18.714351
10.494763 27.621854 17.956609
9.501873 2.135650 14.870783
9.186255 3.626795 15.222910
9.501873 32.135650 14.870783
9.186255 33.626795 15.222910
25.813162 9.133739 22.806289
26.297684 10.550744 22.318874
4.000640 1.957559 13.274279
3.238930 2.052349 11.967488
4.000640 31.957559 13.274279
3.238930 32.052349 11.967488
21.026960 2.442029 25.926131
21.330638 3.268500 27.217583
21.026960 32.442029 25.926131
21.330638 33.268500 27.217583
20.214038 -2.431833 3.866430
20.903470 -1.363044 4.740758
20.214038 27.568167 3.866430
20.903470 28.636956 4.740758
-0.687405 23.161174 21.515808
-0.462849 24.657693 21.268820
29.312595 23.161174 21.515808
29.537151 24.657693 21.268820
23.963247 15.184419 17.975221
22.791568 14.343286 17.288993
-2.974874 17.256715 20.718920
-2.940256 16.617384 19.401452
27.025126 17.256715 20.718920
27.059744 16.617384 19.401452
8.490325 11.398213 -2.023904
8.269323 12.969795 -2.009347
8.490325 11.398213 27.976096
8.269323 12.969795 27.990653
20.911216 11.394058 15.477608
22.037338 10.421132 16.108347
26.124272 22.531883 18.256993
26.975490 21.271363 18.159962
-1.070117 2.095710 14.956947
-0.292094 1.452237 13.743816
-1.070117 32.095710 14.956947
-0.292094 31.452237 13.743816
28.929883 2.095710 14.956947
29.707906 1.452237 13.743816
28.929883 32.095710 14.956947
29.707906 31.452237 13.743816
14.734332 15.487018 7.780966
14.006208 15.099310 9.063013
16.785080 12.862878 1.916410
17.970866 13.775263 2.012007
16.785080 12.862878 31.916410
17.970866 13.775263 32.012007
-2.006503 4.943892 -0.342363
-0.720271 5.794075 -0.211163
-2.006503 4.943892 29.657637
-0.720271 5.794075 29.788837
27.993497 4.943892 -0.342363
29.279729 5.794075 -0.211163
27.993497 4.943892 29.657637
29.279729 5.794075 29.788837
20.786298 21.896922 12.205444
21.311326 22.917277 13.226068
10.890888 1.498889 26.964564
11.210685 0.608110 25.681568
10.890888 31.498889 26.964564
11.210685 30.608110 25.681568
8.569777 24.808177 7.782606
7.250622 24.680702 8.563934
-0.669713 4.281824 24.001465
-0.300498 4.932835 25.318954
29.330287 4.281824 24.001465
29.699502 4.932835 25.318954
24.235564 5.336524 2.387687
24.449249 5.106718 3.895823
1.954299 16.234020 25.620012
1.475631 16.220632 24.178278
31.954299 16.234020 25.620012
31.475631 16.220632 24.178278
12.457348 16.542231 24.961783
12.594048 17.237475 26.307094
6.607371 2.388633 20.897369
5.407497 3.065412 21.641990
6.607371 32.388633 20.897369
5.407497 33.065412 21.641990
15.589228 17.530455 -1.423672
16.184411 18.459284 -0.413898
15.589228 17.530455 28.576328
16.184411 18.459284 29.586102
4.475953 14.780212 2.727293
3.381349 14.892908 3.902105
12.500408 0.512455 21.204626
12.261736 1.536608 20.124751
12.500408 30.512455 21.204626
12.261736 31.536608 20.124751
1.409954 26.921187 23.695263
2.558902 26.122092 23.358762
31.409954 26.921187 23.695263
32.558902 26.122092 23.358762
9.572473 10.775634 3.043619
10.031089 10.667423 1.492968
9.572473 10.775634 33.043619
10.031089 10.667423 31.492968
11.827296 15.930434 20.653813
12.120443 14.433799 20.409925
7.508898 8.307382 10.458573
7.789462 9.780637 9.931863
2.400956 1.663817 19.561732
0.946471 1.951117 19.832369
2.400956 31.663817 19.561732
0.946471 31.951117 19.832369
32.400956 1.663817 19.561732
30.946471 1.951117 19.832369
32.400956 31.663817 19.561732
30.946471 31.951117 19.832369
19.421733 4.781713 18.488652
18.650313 4.649733 17.185380
0.223803 10.062226 21.949313
0.359323 8.626094 21.656091
30.223803 10.062226 21.949313
30.359323 8.626094 21.656091
3.224710 14.065813 10.402170
1.918920 14.804249 9.872873
33.224710 14.065813 10.402170
31.918920 14.804249 9.872873
7.649662 12.139506 22.834732
6.331559 12.469727 22.045696
0.886923 -2.587237 5.446861
-0.167134 -1.705115 4.851109
0.886923 27.412763 5.446861
-0.167134 28.294885 4.851109
30.886923 -2.587237 5.446861
29.832866 -1.705115 4.851109
30.886923 27.412763 5.446861
29.832866 28.294885 4.851109
25.432702 9.793301 18.286612
25.715652 11.200575 17.560386
4.569023 17.366707 20.308663
5.189338 17.223809 21.770083
12.071935 20.902232 21.029385
13.545081 20.340843 21.161483
-2.582027 -1.278935 19.787534
-3.099030 -2.520795 19.162863
-2.582027 28.721065 19.787534
-3.099030 27.479205 19.162863
27.417973 -1.278935 19.787534
26.900970 -2.520795 19.162863
27.417973 28.721065 19.787534
26.900970 27.479205 19.162863
23.310712 4.782937 17.340088
23.215165 6.325936 17.579358
2.197355 13.638074 13.905507
0.707939 13.076506 13.867084
32.197355 13.638074 13.905507
30.707939 13.076506 13.867084
16.267072 10.576773 16.007584
15.671888 10.476582 17.374176
13.927325 2.856672 16.557346
14.274895 4.268894 16.181902
15.658596 12.332474 25.620426
14.444722 11.483324 25.742461
26.927896 3.902589 18.204613
26.897446 4.492189 19.548524
5.690862 16.962899 27.002847
5.447562 18.425332 26.482608
1.283691 20.008098 6.554464
-0.146601 19.781549 6.141099
31.283691 20.008098 6.554464
29.853399 19.781549 6.141099
24.624673 8.861272 14.013986
25.736820 7.777571 13.762291
16.369027 5.148279 7.795547
16.557123 4.072692 8.704766
16.047631 12.471333 6.635417
14.752653 11.682195 6.343038
15.599714 9.330804 2.602417
16.994827 8.952772 3.348125
15.599714 9.330804 32.602417
16.994827 8.952772 33.348125
26.829344 10.100283 -1.738274
27.081988 8.999403 -2.794315
26.829344 10.100283 28.261726
27.081988 8.999403 27.205685
13.711517 13.576060 -1.328402
12.863353 13.629070 -0.096197
13.711517 13.576060 28.671598
12.863353 13.629070 29.903803
21.526535 0.338433 20.243720
20.676797 1.524834 20.611105
21.526535 30.338433 20.243720
20.676797 31.524834 20.611105
1.928290 1.785087 3.385096
1.389808 2.623026 2.251027
1.928290 1.785087 33.385096
1.389808 2.623026 32.251027
1.928290 31.785087 3.385096
1.389808 32.623026 2.251027
1.928290 31.785087 33.385096
1.389808 32.623026 32.251027
31.928290 1.785087 3.385096
31.389808 2.623026 2.251027
31.928290 1.785087 33.385096
31.389808 2.623026 32.251027
31.928290 31.785087 3.385096
31.389808 32.623026 2.251027
31.928290 31.785087 33.385096
31.389808 32.623026 32.251027
19.695464 10.526338 5.086879
20.976503 10.033571 5.723314
1.565456 -0.538587 16.923937
2.921227 -0.810901 16.040316
1.565456 29.461413 16.923937
2.921227 29.189099 16.040316
31.565456 -0.538587 16.923937
32.921227 -0.810901 16.040316
31.565456 29.461413 16.923937
32.921227 29.189099 16.040316
-3.308728 24.033369 25.105630
-2.263457 24.783032 26.052555
26.691272 24.033369 25.105630
27.736543 24.783032 26.052555
2.940277 5.377704 14.424317
3.065162 6.890385 14.718499
32.940277 5.377704 14.424317
33.065162 6.890385 14.718499
8.614957 5.374279 2.780916
9.196575 6.471680 3.792367
-1.095942 16.327085 8.636042
-2.537515 16.761978 8.998826
28.904058 16.327085 8.636042
27.462485 16.761978 8.998826
6.030924 19.998893 14.642230
6.222674 21.390474 15.332557
4.871247 9.327188 7.271057
4.667013 10.854156 7.144731
20.994236 23.604830 3.268117
20.905880 23.378155 1.746925
20.994236 23.604830 33.268117
20.905880 23.378155 31.746925
-0.561007 9.265044 18.149904
-0.785969 9.445696 16.530327
29.438993 9.265044 18.149904
29.214031 9.445696 16.530327
14.070803 16.254285 12.513326
12.660046 16.281602 12.669766
6.990717 1.773218 5.050109
7.387179 3.145286 5.612247
6.990717 31.773218 5.050109
7.387179 33.145286 5.612247
21.949127 20.156087 6.551093
21.587163 19.005086 7.538797
-1.952634 5.958851 5.689992
-1.702569 4.694962 5.071478
28.047366 5.958851 5.689992
28.297431 4.694962 5.071478
7.886117 21.189633 9.481117
6.380673 21.173755 9.234037
14.273213 24.280154 23.620115
13.115985 23.253904 23.898920
-2.218106 24.159397 1.237171
-3.408455 24.995730 0.559782
-2.218106 24.159397 31.237171
-3.408455 24.995730 30.559782
27.781894 24.159397 1.237171
26.591545 24.995730 0.559782
27.781894 24.159397 31.237171
26.591545 24.995730 30.559782
25.307473 -1.514828 6.437564
23.904744 -2.092116 6.360085
25.307473 28.485172 6.437564
23.904744 27.907884 6.360085
4.852659 10.373511 15.170806
4.445502 10.279132 16.587715
3.610992 12.757854 26.943844
4.209478 13.069603 25.568445
1.290379 19.531920 12.898857
1.767514 20.734221 13.503682
31.290379 19.531920 12.898857
31.767514 20.734221 13.503682
10.977879 12.972012 10.650454
11.137395 11.407438 10.599406
10.930132 -0.140907 3.875298
11.075429 -0.194185 5.275489
10.930132 29.859093 3.875298
11.075429 29.805815 5.275489
20.628878 7.642825 20.645805
20.467779 6.923246 22.034823
19.774415 7.492348 9.459410
18.371936 8.033323 8.960766
4.915449 6.138289 -1.412300
3.904032 5.895088 -2.629061
4.915449 6.138289 28.587700
3.904032 5.895088 27.370939
7.269035 16.303581 8.859586
7.745683 15.049548 8.013740
23.546175 3.199755 13.193879
24.870037 2.620932 12.968546
23.546175 33.199755 13.193879
24.870037 32.620932 12.968546
14.245746 21.876425 9.903014
15.289698 22.895475 10.065279
10.143514 2.697673 8.793659
9.705103 3.745416 9.773752
25.258482 12.869884 0.709145
26.313295 13.784984 -0.131640
25.258482 12.869884 30.709145
26.313295 13.784984 29.868360
24.054433 -1.864097 -1.143159
22.854023 -1.765279 -2.089092
24.054433 -1.864097 28.856841
22.854023 -1.765279 27.910908
24.054433 28.135903 -1.143159
22.854023 28.234721 -2.089092
24.054433 28.135903 28.856841
22.854023 28.234721 27.910908
-0.832162 1.127941 8.285166
0.504267 1.771489 8.599859
-0.832162 31.127941 8.285166
0.504267 31.771489 8.599859
29.167838 1.127941 8.285166
30.504267 1.771489 8.599859
29.167838 31.127941 8.285166
30.504267 31.771489 8.599859
25.751946 22.414292 14.015082
24.743382 23.476754 14.696258
2.791009 17.749366 16.121553
3.307075 18.741799 17.091366
24.280748 1.119286 17.920080
25.300492 1.027582 16.799172
24.280748 31.119286 17.920080
25.300492 31.027582 16.799172
13.362068 4.315526 10.553384
13.048719 5.825318 11.090125
4.710983 21.167507 19.772297
3.769844 22.319508 19.364962
0.059113 2.383039 -1.849475
1.526017 2.249181 -2.376614
0.059113 2.383039 28.150525
1.526017 2.249181 27.623386
0.059113 32.383039 -1.849475
1.526017 32.249181 -2.376614
0.059113 32.383039 28.150525
1.526017 32.249181 27.623386
30.059113 2.383039 -1.849475
31.526017 2.249181 -2.376614
30.059113 2.383039 28.150525
31.526017 2.249181 27.623386
30.059113 32.383039 -1.849475
31.526017 32.249181 -2.376614
30.059113 32.383039 28.150525
31.526017 32.249181 27.623386
8.000268 19.742862 1.099859
6.743016 18.846537 1.506102
8.000268 19.742862 31.099859
6.743016 18.846537 31.506102
0.531601 8.696237 8.899007
0.487050 8.442821 7.395851
30.531601 8.696237 8.899007
30.487050 8.442821 7.395851
24.421070 12.983042 14.080655
25.600490 13.980015 14.046876
4.678808 -0.943494 22.848404
4.744619 0.258503 23.860262
4.678808 29.056506 22.848404
4.744619 30.258503 23.860262
6.800196 16.099531 16.896930
6.289473 14.587286 16.685258
-0.681784 23.117226 10.648864
0.415515 22.804053 9.639208
29.318216 23.117226 10.648864
30.415515 22.804053 9.639208
18.784152 1.231747 14.121574
17.904014 1.984907 13.160064
18.784152 31.231747 14.121574
17.904014 31.984907 13.160064
8.083324 24.577413 27.229518
7.464889 23.266592 26.662306
16.497143 0.894971 16.219010
16.467016 -0.013795 17.538041
16.497143 30.894971 16.219010
16.467016 29.986205 17.538041
27.364377 10.535222 4.969323
26.163779 10.327917 5.783694
3.744597 25.482032 15.779889
3.732819 24.839889 14.267614
-2.299716 18.981731 2.561803
-3.343794 18.209678 1.894461
-2.299716 18.981731 32.561803
-3.343794 18.209678 31.894461
27.700284 18.981731 2.561803
26.656206 18.209678 1.894461
27.700284 18.981731 32.561803
26.656206 18.209678 31.894461
12.646120 8.722936 22.991951
11.480113 9.485317 22.548198
21.000481 -2.978674 17.616513
19.719453 -3.061813 16.792082
21.000481 27.021326 17.616513
19.719453 26.938187 16.792082
13.483318 23.482511 14.365190
12.560874 22.497819 13.664862
20.706255 2.165292 3.136869
19.811035 2.608752 4.275408
20.706255 32.165292 3.136869
19.811035 32.608752 4.275408
-1.097174 16.305184 16.213320
-2.456191 16.835974 15.881891
28.902826 16.305184 16.213320
27.543809 16.835974 15.881891
23.334887 11.285274 -2.094893
22.269100 11.084543 -3.259661
23.334887 11.285274 27.905107
22.269100 11.084543 26.740339
6.117431 20.803406 23.537511
7.032337 19.603223 23.325260
21.204876 2.862478 8.834869
21.664008 4.167799 7.998621
22.617771 7.692474 25.395071
22.516889 6.339512 24.965617
15.797301 14.537017 15.697948
17.168963 14.379278 16.441122
14.021341 15.819900 2.888934
12.661831 16.553218 2.703901
14.021341 15.819900 32.888934
12.661831 16.553218 32.703901
0.680851 -2.143362 10.372076
1.342262 -1.912449 8.910234
0.680851 27.856638 10.372076
1.342262 28.087551 8.910234
30.680851 -2.143362 10.372076
31.342262 -1.912449 8.910234
30.680851 27.856638 10.372076
31.342262 28.087551 8.910234
22.723841 19.185930 1.242651
21.500919 19.776561 2.027254
22.723841 19.185930 31.242651
21.500919 19.776561 32.027254
9.833673 4.216061 -1.134328
8.338709 4.371102 -1.030763
9.833673 4.216061 28.865672
8.338709 4.371102 28.969237
26.558900 15.561595 4.942052
25.773654 15.771013 6.220433
23.290566 0.226064 10.039477
23.660223 -1.173001 10.522404
23.290566 30.226064 10.039477
23.660223 28.826999 10.522404
11.489438 17.070594 16.390972
12.676676 16.624956 17.166758
23.155211 7.808822 10.650386
22.165140 8.447365 11.669232
6.050059 8.496406 21.280961
4.908742 9.082903 22.282201
5.627336 8.324904 2.427378
4.894088 9.261916 3.325406
5.627336 8.324904 32.427378
4.894088 9.261916 33.325406
7.913443 23.537483 17.939996
8.508849 22.302927 18.782777
2.561276 20.788275 -1.040410
2.337717 21.670913 0.024157
2.561276 20.788275 28.959590
2.337717 21.670913 30.024157
32.561276 20.788275 -1.040410
32.337717 21.670913 0.024157
32.561276 20.788275 28.959590
32.337717 21.670913 30.024157
6.219627 -0.187362 8.129317
5.767304 -1.008088 9.331490
6.219627 29.812638 8.129317
5.767304 28.991912 9.331490
10.828133 23.711211 10.224175
12.050548 24.500540 10.019624
20.564863 18.193140 12.464273
21.426390 17.911397 13.731027
16.873395 25.123154 -0.577838
15.492253 24.585930 -1.137825
16.873395 25.123154 29.422162
15.492253 24.585930 28.862175
24.367756 22.759618 5.087693
25.762141 23.404551 5.158357
18.831486 3.733394 0.110181
17.561661 4.568519 0.462168
18.831486 3.733394 30.110181
17.561661 4.568519 30.462168
23.419199 -2.882080 14.082619
23.576495 -1.770650 15.260809
23.419199 27.117920 14.082619
23.576495 28.229350 15.260809
8.096296 -0.780115 26.401519
7.405441 -1.911239 25.624759
8.096296 29.219885 26.401519
7.405441 28.088761 25.624759
9.235502 7.620672 -2.504031
10.488574 7.736713 -3.204227
9.235502 7.620672 27.495969
10.488574 7.736713 26.795773
6.737758 -2.856584 19.011059
6.532392 -2.512811 17.540755
6.737758 27.143416 19.011059
6.532392 27.487189 17.540755
18.791581 -0.849127 0.752247
18.457715 -0.163181 -0.610244
18.791581 -0.849127 30.752247
18.457715 -0.163181 29.389756
18.791581 29.150873 0.752247
18.457715 29.836819 -0.610244
18.791581 29.150873 30.752247
18.457715 29.836819 29.389756
20.168983 26.059283 24.606704
18.985714 25.798140 25.389541
16.573683 26.118791 20.609667
17.253294 27.460025 20.785721
8.519255 10.178781 14.966199
8.565205 10.513875 13.403296
3.762039 -1.877315 1.980221
4.952718 -0.970714 1.937018
3.762039 -1.877315 31.980221
4.952718 -0.970714 31.937018
3.762039 28.122685 1.980221
4.952718 29.029286 1.937018
3.762039 28.122685 31.980221
4.952718 29.029286 31.937018
LINES 272 816
2 0 1
2 2 3
2 4 5
2 6 7
2 8 9
2 10 11
2 12 13
2 14 15
2 16 17
2 18 19
2 20 21
2 22 23
2 24 25
2 26 27
2 28 29
2 30 31
2 32 33
2 34 35
2 36 37
2 38 39
2 40 41
2 42 43
2 44 45
2 46 47
2 48 49
2 50 51
2 52 53
2 54 55
2 56 57
2 58 59
2 60 61
2 62 63
2 64 65
2 66 67
2 68 69
2 70 71
2 72 73
2 74 75
2 76 77
2 78 79
2 80 81
2 82 83
2 84 85
2 86 87
2 88 89
2 90 91
2 92 93
2 94 95
2 96 97
2 98 99
2 100 101
2 102 103
2 104 105
2 106 107
2 108 109
2 110 111
2 112 113
2 114 115
2 116 117
2 118 119
2 120 121
2 122 123
2 124 125
2 126 127
2 128 129
2 130 131
2 132 133
2 134 135
2 136 137
2 138 139
2 140 141
2 142 143
2 144 145
2 146 147
2 148 149
2 150 151
2 152 153
2 154 155
2 156 157
2 158 159
2 160 161
2 162 163
2 164 165
2 166 167
2 168 169
2 170 171
2 172 173
2 174 175
2 176 177
2 178 179
2 180 181
2 182 183
2 184 185
2 186 187
2 188 189
2 190 191
2 192 193
2 194 195
2 196 197
2 198 199
2 200 201
2 202 203
2 204 205
2 206 207
2 208 209
2 210 211
2 212 213
2 214 215
2 216 217
2 218 219
2 220 221
2 222 223
2 224 225
2 226 227
2 228 229
2 230 231
2 232 233
2 234 235
2 236 237
2 238 239
2 240 241
2 242 243
2 244 245
2 246 247
2 248 249
2 250 251
2 252 253
2 254 255
2 256 257
2 258 259
2 260 261
2 262 263
2 264 265
2 266 267
2 268 269
2 270 271
2 272 273
2 274 275
2 276 277
2 278 279
2 280 281
2 282 283
2 284 285
2 286 287
2 288 289
2 290 291
2 292 293
2 294 295
2 296 297
2 298 299
2 300 301
2 302 303
2 304 305
2 306 307
2 308 309
2 310 311
2 312 313
2 314 315
2 316 317
2 318 319
2 320 321
2 322 323
2 324 325
2 326 327
2 328 329
2 330 331
2 332 333
2 334 335
2 336 337
2 338 339
2 340 341
2 342 343
2 344 345
2 346 347
2 348 349
2 350 351
2 352 353
2 354 355
2 356 357
2 358 359
2 360 361
2 362 363
2 364 365
2 366 367
2 368 369
2 370 371
2 372 373
2 374 375
2 376 377
2 378 379
2 380 381
2 382 383
2 384 385
2 386 387
2 388 389
2 390 391
2 392 393
2 394 395
2 396 397
2 398 399
2 400 401
2 402 403
2 404 405
2 406 407
2 408 409
2 410 411
2 412 413
2 414 415
2 416 417
2 418 419
2 420 421
2 422 423
2 424 425
2 426 427
2 428 429
2 430 431
2 432 433
2 434 435
2 436 437
2 438 439
2 440 441
2 442 443
2 444 445
2 446 447
2 448 449
2 450 451
2 452 453
2 454 455
2 456 457
2 458 459
2 460 461
2 462 463
2 464 465
2 466 467
2 468 469
2 470 471
2 472 473
2 474 475
2 476 477
2 478 479
2 480 481
2 482 483
2 484 485
2 486 487
2 488 489
2 490 491
2 492 493
2 494 495
2 496 497
2 498 499
2 500 501
2 502 503
2 504 505
2 506 507
2 508 509
2 510 511
2 512 513
2 514 515
2 516 517
2 518 519
2 520 521
2 522 523
2 524 525
2 526 527
2 528 529
2 530 531
2 532 533
2 534 535
2 536 537
2 538 539
2 540 541
2 542 543
POINT_DATA 544
SCALARS my_scalars float
LOOKUP_TABLE default
1.7
1.7
1.7
1.7
1.7
1.7
1.7
1.7
1.7
1.7
1.7
1.7
1.7
1.7
1.7
1.7
1.7
1.7
1.7
1.7
1.7
1.7
1.7
1.7
1.7
1.7
1.7
1.7
1.7
1.7
1.7
1.7
1.7
1.7
1.7
1.7
1.7
1.7
1.7
1.7
1.7
1.7
1.7
1.7
1.7
1.7
1.7
1.7
1.7
1.7
1.7
1.7
1.7
1.7
1.7
1.7
1.7
1.7
1.7
1.7
1.7
1.7
1.7
1.7
1.7
1.7
1.7
1.7
1.7
1.7
1.7
1.7
1.7
1.7
1.7
1.7
1.7
1.7
1.7
1.7
1.7
1.7
1.7
1.7
1.7
1.7
1.7
1.7
1.7
1.7
1.7
1.7
1.7
1.7
1.7
1.7
1.7
1.7
1.7
1.7
1.7
1.7
1.7
1.7
1.7
1.7
1.7
1.7
1.7
1.7
1.7
1.7
1.7
1.7
1.7
1.7
1.7
1.7
1.7
1.7
1.7
1.7
1.7
1.7
1.7
1.7
1.7
1.7
1.7
1.7
1.7
1.7
1.7
1.7
1.7
1.7
1.7
1.7
1.7
1.7
1.7
1.7
1.7
1.7
1.7
1.7
1.7
1.7
1.7
1.7
1.7
1.7
1.7
1.7
1.7
1.7
1.7
1.7
1.7
1.7
1.7
1.7
1.7
1.7
1.7
1.7
1.7
1.7
1.7
1.7
1.7
1.7
1.7
1.7
1.7
1.7
1.7
1.7
1.7
1.7
1.7
1.7
1.7
1.7
1.7
1.7
1.7
1.7
1.7
1.7
1.7
1.7
1.7
1.7
1.7
1.7
1.7
1.7
1.7
1.7
1.7
1.7
1.7
1.7
1.7
1.7
1.7
1.7
1.7
1.7
1.7
1.7
1.7
1.7
1.7
1.7
1.7
1.7
1.7
1.7
1.7
1.7
1.7
1.7
1.7
1.7
1.7
1.7
1.7
1.7
1.7
1.7
1.7
1.7
1.7
1.7
1.7
1.7
1.7
1.7
1.7
1.7
1.7
1.7
1.7
1.7
1.7
1.7
1.7
1.7
1.7
1.7
1.7
1.7
1.7
1.7
1.7
1.7
1.7
1.7
1.7
1.7
1.7
1.7
1.7
1.7
1.7
1.7
1.7
1.7
1.7
1.7
1.7
1.7
1.7
1.7
1.7
1.7
1.7
1.7
1.7
1.7
1.7
1.7
1.7
1.7
1.7
1.7
1.7
1.7
1.7
1.7
1.7
1.7
1.7
1.7
1.7
1.7
1.7
1.7
1.7
1.7
1.7
1.7
1.7
1.7
1.7
1.7
1.7
1.7
1.7
1.7
1.7
1.7
1.7
1.7
1.7
1.7
1.7
1.7
1.7
1.7
1.7
1.7
1.7
1.7
1.7
1.7
1.7
1.7
1.7
1.7
1.7
1.7
1.7
1.7
1.7
1.7
1.7
1.7
1.7
1.7
1.7
1.7
1.7
1.7
1.7
1.7
1.7
1.7
1.7
1.7
1.7
1.7
1.7
1.7
1.7
1.7
1.7
1.7
1.7
1.7
1.7
1.7
1.7
1.7
1.7
1.7
1.7
1.7
1.7
1.7
1.7
1.7
1.7
1.7
1.7
1.7
1.7
1.7
1.7
1.7
1.7
1.7
1.7
1.7
1.7
1.7
1.7
1.7
1.7
1.7
1.7
1.7
1.7
1.7
1.7
1.7
1.7
1.7
1.7
1.7
1.7
1.7
1.7
1.7
1.7
1.7
1.7
1.7
1.7
1.7
1.7
1.7
1.7
1.7
1.7
1.7
1.7
1.7
1.7
1.7
1.7
1.7
1.7
1.7
1.7
1.7
1.7
1.7
1.7
1.7
1.7
1.7
1.7
1.7
1.7
1.7
1.7
1.7
1.7
1.7
1.7
1.7
1.7
1.7
1.7
1.7
1.7
1.7
1.7
1.7
1.7
1.7
1.7
1.7
1.7
1.7
1.7
1.7
1.7
1.7
1.7
1.7
1.7
1.7
1.7
1.7
1.7
1.7
1.7
1.7
1.7
1.7
1.7
1.7
1.7
1.7
1.7
1.7
1.7
1.7
1.7
1.7
1.7
1.7
1.7
1.7
1.7
1.7
1.7
1.7
1.7
1.7
1.7
1.7
1.7
1.7
1.7
1.7
1.7
1.7
1.7
1.7
1.7
1.7
1.7
1.7
1.7
1.7
1.7
1.7
1.7
1.7
1.7
1.7
1.7
1.7
1.7
1.7
1.7
1.7
1.7
1.7
1.7
1.7
1.7
1.7
1.7
1.7
1.7
1.7
1.7
1.7
1.7
1.7
1.7
1.7
1.7
1.7
1.7
1.7
1.7
1.7
VECTORS vectors float
0.3125 0 0
0.3125 0 0
0.3125 0 0
0.3125 0 0
0.3125 0 0
0.3125 0 0
0.3125 0 0
0.3125 0 0
0.3125 0 0
0.3125 0 0
0.3125 0 0
0.3125 0 0
0.3125 0 0
0.3125 0 0
0.3125 0 0
0.3125 0 0
0.3125 0 0
0.3125 0 0
0.3125 0 0
0.3125 0 0
0.3125 0 0
0.3125 0 0
0.3125 0 0
0.3125 0 0
0.3125 0 0
0.3125 0 0
0.3125 0 0
0.3125 0 0
0.3125 0 0
0.3125 0 0
0.3125 0 0
0.3125 0 0
0.3125 0 0
0.3125 0 0
0.3125 0 0
0.3125 0 0
0.3125 0 0
0.3125 0 0
0.3125 0 0
0.3125 0 0
0.3125 0 0
0.3125 0 0
0.3125 0 0
0.3125 0 0
0.3125 0 0
0.3125 0 0
0.3125 0 0
0.3125 0 0
0.3125 0 0
0.3125 0 0
0.3125 0 0
0.3125 0 0
0.3125 0 0
0.3125 0 0
0.3125 0 0
0.3125 0 0
0.3125 0 0
0.3125 0 0
0.3125 0 0
0.3125 0 0
0.3125 0 0
0.3125 0 0
0.3125 0 0
0.3125 0 0
0.3125 0 0
0.3125 0 0
0.3125 0 0
0.3125 0 0
0.3125 0 0
0.3125 0 0
0.3125 0 0
0.3125 0 0
0.3125 0 0
0.3125 0 0
0.3125 0 0
0.3125 0 0
0.3125 0 0
0.3125 0 0
0.3125 0 0
0.3125 0 0
0.3125 0 0
0.3125 0 0
0.3125 0 0
0.3125 0 0
0.3125 0 0
0.3125 0 0
0.3125 0 0
0.3125 0 0
0.3125 0 0
0.3125 0 0
0.3125 0 0
0.3125 0 0
0.3125 0 0
0.3125 0 0
0.3125 0 0
0.3125 0 0
0.3125 0 0
0.3125 0 0
0.3125 0 0
0.3125 0 0
0.3125 0 0
0.3125 0 0
0.3125 0 0
0.3125 0 0
0.3125 0 0
0.3125 0 0
0.3125 0 0
0.3125 0 0
0.3125 0 0
0.3125 0 0
0.3125 0 0
0.3125 0 0
0.3125 0 0
0.3125 0 0
0.3125 0 0
0.3125 0 0
0.3125 0 0
0.3125 0 0
0.3125 0 0
0.3125 0 0
0.3125 0 0
0.3125 0 0
0.3125 0 0
0.3125 0 0
0.3125 0 0
0.3125 0 0
0.3125 0 0
0.3125 0 0
0.3125 0 0
0.3125 0 0
0.3125 0 0
0.3125 0 0
0.3125 0 0
0.3125 0 0
0.3125 0 0
0.3125 0 0
0.3125 0 0
0.3125 0 0
0.3125 0 0
0.3125 0 0
0.3125 0 0
0.3125 0 0
0.3125 0 0
0.3125 0 0
0.3125 0 0
0.3125 0 0
0.3125 0 0
0.3125 0 0
0.3125 0 0
0.3125 0 0
0.3125 0 0
0.3125 0 0
0.3125 0 0
0.3125 0 0
0.3125 0 0
0.3125 0 0
0.3125 0 0
0.3125 0 0
0.3125 0 0
0.3125 0 0
0.3125 0 0
0.3125 0 0
0.3125 0 0
0.3125 0 0
0.3125 0 0
0.3125 0 0
0.3125 0 0
0.3125 0 0
0.3125 0 0
0.3125 0 0
0.3125 0 0
0.3125 0 0
0.3125 0 0
0.3125 0 0
0.3125 0 0
0.3125 0 0
0.3125 0 0
0.3125 0 0
0.3125 0 0
0.3125 0 0
0.3125 0 0
0.3125 0 0
0.3125 0 0
0.3125 0 0
0.3125 0 0
0.3125 0 0
0.3125 0 0
0.3125 0 0
0.3125 0 0
0.3125 0 0
0.3125 0 0
0.3125 0 0
0.3125 0 0
0.3125 0 0
0.3125 0 0
0.3125 0 0
0.3125 0 0
0.3125 0 0
0.3125 0 0
0.3125 0 0
0.3125 0 0
0.3125 0 0
0.3125 0 0
0.3125 0 0
0.3125 0 0
0.3125 0 0
0.3125 0 0
0.3125 0 0
0.3125 0 0
0.3125 0 0
0.3125 0 0
0.3125 0 0
0.3125 0 0
0.3125 0 0
0.3125 0 0
0.3125 0 0
0.3125 0 0
0.3125 0 0
0.3125 0 0
0.3125 0 0
0.3125 0 0
0.3125 0 0
0.3125 0 0
0.3125 0 0
0.3125 0 0
0.3125 0 0
0.3125 0 0
0.3125 0 0
0.3125 0 0
0.3125 0 0
0.3125 0 0
0.3125 0 0
0.3125 0 0
0.3125 0 0
0.3125 0 0
0.3125 0 0
0.3125 0 0
0.3125 0 0
0.3125 0 0
0.3125 0 0
0.3125 0 0
0.3125 0 0
0.3125 0 0
0.3125 0 0
0.3125 0 0
0.3125 0 0
0.3125 0 0
0.3125 0 0
0.3125 0 0
0.3125 0 0
0.3125 0 0
0.3125 0 0
0.3125 0 0
0.3125 0 0
0.3125 0 0
0.3125 0 0
0.3125 0 0
0.3125 0 0
0.3125 0 0
0.3125 0 0
0.3125 0 0
0.3125 0 0
0.3125 0 0
0.3125 0 0
0.3125 0 0
0.3125 0 0
0.3125 0 0
0.3125 0 0
0.3125 0 0
0.3125 0 0
0.3125 0 0
0.3125 0 0
0.3125 0 0
0.3125 0 0
0.3125 0 0
0.3125 0 0
0.3125 0 0
0.3125 0 0
0.3125 0 0
0.3125 0 0
0.3125 0 0
0.3125 0 0
0.3125 0 0
0.3125 0 0
0.3125 0 0
0.3125 0 0
0.3125 0 0
0.3125 0 0
0.3125 0 0
0.3125 0 0
0.3125 0 0
0.3125 0 0
0.3125 0 0
0.3125 0 0
0.3125 0 0
0.3125 0 0
0.3125 0 0
0.3125 0 0
0.3125 0 0
0.3125 0 0
0.3125 0 0
0.3125 0 0
0.3125 0 0
0.3125 0 0
0.3125 0 0
0.3125 0 0
0.3125 0 0
0.3125 0 0
0.3125 0 0
0.3125 0 0
0.3125 0 0
0.3125 0 0
0.3125 0 0
0.3125 0 0
0.3125 0 0
0.3125 0 0
0.3125 0 0
0.3125 0 0
0.3125 0 0
0.3125 0 0
0.3125 0 0
0.3125 0 0
0.3125 0 0
0.3125 0 0
0.3125 0 0
0.3125 0 0
0.3125 0 0
0.3125 0 0
0.3125 0 0
0.3125 0 0
0.3125 0 0
0.3125 0 0
0.3125 0 0
0.3125 0 0
0.3125 0 0
0.3125 0 0
0.3125 0 0
0.3125 0 0
0.3125 0 0
0.3125 0 0
0.3125 0 0
0.3125 0 0
0.3125 0 0
0.3125 0 0
0.3125 0 0
0.3125 0 0
0.3125 0 0
0.3125 0 0
0.3125 0 0
0.3125 0 0
0.3125 0 0
0.3125 0 0
0.3125 0 0
0.3125 0 0
0.3125 0 0
0.3125 0 0
0.3125 0 0
0.3125 0 0
0.3125 0 0
0.3125 0 0
0.3125 0 0
0.3125 0 0
0.3125 0 0
0.3125 0 0
0.3125 0 0
0.3125 0 0
0.3125 0 0
0.3125 0 0
0.3125 0 0
0.3125 0 0
0.3125 0 0
0.3125 0 0
0.3125 0 0
0.3125 0 0
0.3125 0 0
0.3125 0 0
0.3125 0 0
0.3125 0 0
0.3125 0 0
0.3125 0 0
0.3125 0 0
0.3125 0 0
0.3125 0 0
0.3125 0 0
0.3125 0 0
0.3125 0 0
0.3125 0 0
0.3125 0 0
0.3125 0 0
0.3125 0 0
0.3125 0 0
0.3125 0 0
0.3125 0 0
0.3125 0 0
0.3125 0 0
0.3125 0 0
0.3125 0 0
0.3125 0 0
0.3125 0 0
0.3125 0 0
0.3125 0 0
0.3125 0 0
0.3125 0 0
0.3125 0 0
0.3125 0 0
0.3125 0 0
0.3125 0 0
0.3125 0 0
0.3125 0 0
0.3125 0 0
0.3125 0 0
0.3125 0 0
0.3125 0 0
0.3125 0 0
0.3125 0 0
0.3125 0 0
0.3125 0 0
0.3125 0 0
0.3125 0 0
0.3125 0 0
0.3125 0 0
0.3125 0 0
0.3125 0 0
0.3125 0 0
0.3125 0 0
0.3125 0 0
0.3125 0 0
0.3125 0 0
0.3125 0 0
0.3125 0 0
0.3125 0 0
0.3125 0 0
0.3125 0 0
0.3125 0 0
0.3125 0 0
0.3125 0 0
0.3125 0 0
0.3125 0 0
0.3125 0 0
0.3125 0 0
0.3125 0 0
0.3125 0 0
0.3125 0 0
0.3125 0 0
0.3125 0 0
0.3125 0 0
0.3125 0 0
0.3125 0 0
0.3125 0 0
0.3125 0 0
0.3125 0 0
0.3125 0 0
0.3125 0 0
0.3125 0 0
0.3125 0 0
0.3125 0 0
0.3125 0 0
0.3125 0 0
0.3125 0 0
0.3125 0 0
0.3125 0 0
0.3125 0 0
0.3125 0 0
0.3125 0 0
0.3125 0 0
0.3125 0 0
0.3125 0 0
0.3125 0 0
0.3125 0 0
0.3125 0 0
0.3125 0 0
0.3125 0 0
0.3125 0 0
0.3125 0 0
0.3125 0 0
0.3125 0 0
0.3125 0 0
0.3125 0 0
0.3125 0 0
0.3125 0 0
0.3125 0 0
0.3125 0 0
0.3125 0 0
0.3125 0 0
0.3125 0 0
0.3125 0 0
0.3125 0 0
0.3125 0 0
0.3125 0 0
0.3125 0 0
0.3125 0 0
0.3125 0 0
0.3125 0 0
0.3125 0 0
0.3125 0 0
0.3125 0 0
0.3125 0 0
0.3125 0 0
0.3125 0 0
0.3125 0 0
0.3125 0 0
0.3125 0 0
0.3125 0 0
0.3125 0 0
0.3125 0 0
0.3125 0 0
0.3125 0 0
0.3125 0 0
0.3125 0 0
0.3125 0 0
0.3125 0 0
0.3125 0 0
0.3125 0 0
0.3125 0 0
0.3125 0 0
0.3125 0 0
0.3125 0 0
0.3125 0 0
0.3125 0 0
0.3125 0 0
0.3125 0 0
0.3125 0 0
0.3125 0 0
0.3125 0 0
0.3125 0 0
0.3125 0 0
0.3125 0 0
0.3125 0 0
0.3125 0 0
0.3125 0 0
0.3125 0 0
0.3125 0 0
0.3125 0 0
0.3125 0 0
0.3125 0 0
0.3125 0 0
0.3125 0 0
0.3125 0 0
0.3125 0 0
0.3125 0 0
0.3125 0 0
0.3125 0 0
0.3125 0 0
0.3125 0 0
