# vtk DataFile Version 1.0
Cube
ASCII

DATASET POLYDATA
POINTS 380 float
4.244243 25.978261 26.083394
3.424910 26.851652 27.075179
4.537155 11.630104 1.435119
4.205586 10.584530 2.485999
4.537155 11.630104 31.435119
4.205586 10.584530 32.485999
16.045331 6.762407 -0.486173
16.155902 5.211683 -0.657454
16.045331 6.762407 29.513827
16.155902 5.211683 29.342546
1.297870 11.849645 -1.443767
1.185754 10.589217 -0.518985
1.297870 11.849645 28.556233
1.185754 10.589217 29.481015
31.297870 11.849645 -1.443767
31.185754 10.589217 -0.518985
31.297870 11.849645 28.556233
31.185754 10.589217 29.481015
5.256982 24.932351 15.026280
5.720875 23.398185 15.388295
5.139190 15.085333 21.742558
5.220917 13.880867 20.598640
4.474218 -1.836561 12.120043
5.651175 -2.131853 11.174222
4.474218 28.163439 12.120043
5.651175 27.868147 11.174222
17.352031 15.726829 22.900466
18.703979 16.462870 23.173232
8.462478 17.820552 13.522597
6.930735 17.777218 14.136139
10.642607 24.933947 25.346785
11.487669 24.479372 24.083311
24.083022 12.335867 2.978086
23.349778 11.016941 2.758960
24.083022 12.335867 32.978086
23.349778 11.016941 32.758960
15.146808 21.266996 23.955262
16.271708 20.565396 23.084306
17.274104 25.768484 14.869968
17.657211 26.641688 16.137715
-3.129140 17.261579 0.085085
-2.303908 17.993883 -1.034622
-3.129140 17.261579 30.085085
-2.303908 17.993883 28.965378
26.870860 17.261579 0.085085
27.696092 17.993883 -1.034622
26.870860 17.261579 30.085085
27.696092 17.993883 28.965378
11.184435 -2.196155 10.560074
11.368721 -0.723351 9.912924
11.184435 27.803845 10.560074
11.368721 29.276649 9.912924
0.774055 1.507160 18.562506
0.741858 1.797844 20.081164
0.774055 31.507160 18.562506
0.741858 31.797844 20.081164
30.774055 1.507160 18.562506
30.741858 1.797844 20.081164
30.774055 31.507160 18.562506
30.741858 31.797844 20.081164
8.228885 27.369563 13.989864
9.016661 26.061032 13.633835
10.668084 6.276507 23.769435
11.341475 5.818476 25.154983
3.676355 8.865131 22.775173
3.082520 9.404396 24.111393
8.831625 -2.124847 18.158404
7.968889 -3.259442 18.671034
8.831625 27.875153 18.158404
7.968889 26.740558 18.671034
20.714001 25.708817 6.500068
21.297279 24.256094 6.761209
0.705972 11.106188 17.427111
1.638322 11.169667 18.597311
30.705972 11.106188 17.427111
31.638322 11.169667 18.597311
20.374155 17.930371 16.652243
18.999153 17.878765 17.348721
5.146441 -1.160221 22.726169
5.999832 -2.293441 22.241095
5.146441 28.839779 22.726169
5.999832 27.706559 22.241095
17.878872 4.310356 26.242053
18.883531 5.553916 26.175036
3.178372 7.088402 -2.685744
3.763908 6.420161 -1.355083
3.178372 7.088402 27.314256
3.763908 6.420161 28.644917
4.976835 17.707119 17.912050
5.822300 16.502493 18.494461
18.612708 1.564222 16.940124
17.950550 0.755884 18.073477
18.612708 31.564222 16.940124
17.950550 30.755884 18.073477
9.470818 12.404168 21.827349
9.397488 13.543473 22.767938
19.573809 9.573647 0.666138
20.099256 8.572402 -0.322430
19.573809 9.573647 30.666138
20.099256 8.572402 29.677570
4.556634 4.633900 20.471325
5.814755 3.778989 21.007687
14.615002 4.373007 12.775952
15.622121 5.552856 12.512975
23.340672 -1.589239 4.224689
24.214060 -0.328069 4.047933
23.340672 28.410761 4.224689
24.214060 29.671931 4.047933
-0.011131 27.392224 10.329915
-1.036775 26.194469 10.381527
29.988869 27.392224 10.329915
28.963225 26.194469 10.381527
-3.484647 8.765890 17.221093
-1.938668 8.604745 17.026720
26.515353 8.765890 17.221093
28.061332 8.604745 17.026720
18.035490 14.774874 5.345073
18.592451 13.599498 6.214122
9.028637 20.109198 9.255424
10.020281 19.014508 8.928562
26.619118 15.983310 22.048062
26.691474 17.191003 23.021686
10.233520 10.598161 12.158134
8.831000 10.170092 12.216763
23.257717 0.706125 20.786873
24.168856 0.685043 19.433767
23.257717 30.706125 20.786873
24.168856 30.685043 19.433767
23.465562 10.776335 24.984020
23.062993 10.604916 23.572591
17.368292 17.885747 27.067106
15.854328 17.909403 26.599102
13.065616 14.032213 6.995968
12.494648 12.683087 6.999275
6.620578 11.865007 8.825856
8.041081 12.065970 8.284433
21.002235 -1.624174 23.211053
21.187055 -3.094910 23.615829
21.002235 28.375826 23.211053
21.187055 26.905090 23.615829
5.767569 15.208379 3.134673
4.529054 15.722861 4.057000
9.260490 1.454085 24.418209
8.335295 2.665864 24.146388
9.260490 31.454085 24.418209
8.335295 32.665864 24.146388
3.947381 23.893602 8.184961
4.367689 22.833591 7.180093
10.494475 7.798104 0.422257
9.184915 8.171642 1.171077
10.494475 7.798104 30.422257
9.184915 8.171642 31.171077
15.856815 13.056528 2.101290
15.885456 12.532039 3.616926
15.856815 13.056528 32.101290
15.885456 12.532039 33.616926
15.289701 25.136458 8.637689
14.762746 26.554993 9.068426
19.910567 7.386460 5.576903
20.563057 6.841531 6.831747
13.527874 15.797087 22.600514
13.164559 16.414887 21.171761
26.744758 14.343309 25.429139
26.732355 15.064330 26.805892
22.999938 -0.496783 0.192284
22.853671 0.967187 -0.141911
22.999938 -0.496783 30.192284
22.853671 0.967187 29.858089
22.999938 29.503217 0.192284
22.853671 30.967187 -0.141911
22.999938 29.503217 30.192284
22.853671 30.967187 29.858089
18.987443 1.407509 -0.205165
18.656811 -0.083777 -0.117790
18.987443 1.407509 29.794835
18.656811 -0.083777 29.882210
18.987443 31.407509 -0.205165
18.656811 29.916223 -0.117790
18.987443 31.407509 29.794835
18.656811 29.916223 29.882210
12.019836 13.000451 18.939972
10.843692 13.870649 18.348663
13.212330 6.061153 7.466900
13.896592 4.880252 8.114193
16.164594 -1.536227 22.804438
14.900190 -0.693963 22.753344
16.164594 28.463773 22.804438
14.900190 29.306037 22.753344
0.266392 9.015139 13.700618
1.099345 7.733169 13.362226
30.266392 9.015139 13.700618
31.099345 7.733169 13.362226
24.388806 18.679980 4.747148
25.462209 19.203976 3.955873
-1.403201 4.544804 20.860546
-2.502003 3.517591 20.271293
28.596799 4.544804 20.860546
27.497997 3.517591 20.271293
15.929825 8.792347 20.027660
15.716895 7.881319 21.127121
-2.392354 -2.264073 21.665341
-1.281922 -2.683348 22.626001
-2.392354 27.735927 21.665341
-1.281922 27.316652 22.626001
27.607646 -2.264073 21.665341
28.718078 -2.683348 22.626001
27.607646 27.735927 21.665341
28.718078 27.316652 22.626001
12.466387 19.599430 -1.027587
13.343845 19.801342 0.212906
12.466387 19.599430 28.972413
13.343845 19.801342 30.212906
2.740533 21.581376 12.050053
4.135687 21.105110 12.488523
16.823103 5.480213 3.696161
16.251102 4.289345 3.033242
11.701740 19.426002 22.793074
10.286541 19.136697 22.889047
-0.425766 5.050227 10.687095
0.238071 5.788211 9.539937
29.574234 5.050227 10.687095
30.238071 5.788211 9.539937
24.063723 21.008646 9.678281
24.140329 20.923375 11.218789
5.085127 21.323502 24.715969
6.101272 20.256624 24.656198
21.173125 10.348415 18.780791
20.448633 10.776199 20.043955
15.268283 1.538821 -1.425763
15.047311 -0.060526 -1.589533
15.268283 1.538821 28.574237
15.047311 -0.060526 28.410467
15.268283 31.538821 -1.425763
15.047311 29.939474 -1.589533
15.268283 31.538821 28.574237
15.047311 29.939474 28.410467
13.866437 4.672257 21.807040
14.810895 4.627011 23.079653
1.869004 26.540701 18.834523
1.297086 25.034822 18.516696
31.869004 26.540701 18.834523
31.297086 25.034822 18.516696
12.051614 14.521587 10.931132
11.128660 15.683455 11.348766
7.408475 5.903547 10.347730
7.304444 6.997888 9.149698
11.260465 26.990250 21.507780
12.769303 26.746055 21.053347
11.159365 17.092908 5.946652
9.657754 16.808638 5.897520
25.354214 -1.621968 9.414801
26.085044 -0.986812 8.292563
25.354214 28.378032 9.414801
26.085044 29.013188 8.292563
22.146788 24.024030 18.026563
20.636245 23.652433 17.927326
-1.227640 13.673773 6.413314
-0.930879 15.015403 7.242854
28.772360 13.673773 6.413314
29.069121 15.015403 7.242854
5.046698 15.449939 8.961175
3.634978 14.815501 8.438868
25.529179 16.022752 18.209727
26.939019 16.286482 17.703554
0.820803 18.434623 17.506128
-0.206966 18.661922 16.437378
30.820803 18.434623 17.506128
29.793034 18.661922 16.437378
-2.344778 10.658780 24.212389
-2.951244 11.086406 22.929832
27.655222 10.658780 24.212389
27.048756 11.086406 22.929832
20.695693 11.177348 13.947571
19.445659 11.097534 13.063237
6.494325 22.549542 -0.494240
7.505705 23.521171 -1.204872
6.494325 22.549542 29.505760
7.505705 23.521171 28.795128
-3.492015 7.775268 2.599518
-2.420898 7.307089 1.623107
-3.492015 7.775268 32.599518
-2.420898 7.307089 31.623107
26.507985 7.775268 2.599518
27.579102 7.307089 1.623107
26.507985 7.775268 32.599518
27.579102 7.307089 31.623107
-0.595813 2.419770 26.267796
0.756289 1.984835 25.620134
-0.595813 32.419770 26.267796
0.756289 31.984835 25.620134
29.404187 2.419770 26.267796
30.756289 1.984835 25.620134
29.404187 32.419770 26.267796
30.756289 31.984835 25.620134
-2.353287 25.395815 18.290890
-2.644500 26.379075 17.052487
27.646713 25.395815 18.290890
27.355500 26.379075 17.052487
24.220083 7.073686 -2.258476
25.071716 8.174827 -1.841120
24.220083 7.073686 27.741524
25.071716 8.174827 28.158880
9.938663 15.229332 14.892461
11.302240 15.986667 14.800891
18.498246 17.931401 1.958737
18.867077 16.436500 2.292406
18.498246 17.931401 31.958737
18.867077 16.436500 32.292406
22.194994 23.558017 3.606031
22.311854 22.592746 2.440023
22.194994 23.558017 33.606031
22.311854 22.592746 32.440023
24.404406 5.531456 16.159734
23.026560 5.227819 15.419140
6.043725 23.800946 19.228105
6.713156 23.540685 20.642148
4.286704 15.664226 15.198726
3.921451 14.871671 16.393440
16.998436 18.157222 10.506713
16.848668 19.759147 10.698059
-1.654251 24.580023 1.166270
-0.149539 25.204202 1.447632
-1.654251 24.580023 31.166270
-0.149539 25.204202 31.447632
28.345749 24.580023 1.166270
29.850461 25.204202 1.447632
28.345749 24.580023 31.166270
29.850461 25.204202 31.447632
18.241685 -2.751859 2.254449
19.176700 -2.437408 3.445568
18.241685 -2.751859 32.254449
19.176700 -2.437408 33.445568
18.241685 27.248141 2.254449
19.176700 27.562592 3.445568
18.241685 27.248141 32.254449
19.176700 27.562592 33.445568
-2.819747 16.078491 11.571576
-1.750209 15.393025 12.375083
27.180253 16.078491 11.571576
28.249791 15.393025 12.375083
0.019217 14.630004 0.044005
0.944128 15.853531 0.305536
0.019217 14.630004 30.044005
0.944128 15.853531 30.305536
30.019217 14.630004 0.044005
30.944128 15.853531 0.305536
30.019217 14.630004 30.044005
30.944128 15.853531 30.305536
20.255818 0.820600 26.549076
20.995773 1.460023 25.404783
20.255818 30.820600 26.549076
20.995773 31.460023 25.404783
13.033273 9.395351 9.935699
14.204542 9.782893 9.008318
10.718524 2.286016 6.906762
10.676253 3.181613 5.670447
10.718524 32.286016 6.906762
10.676253 33.181613 5.670447
2.836490 22.308884 -0.037265
1.799868 21.358889 0.630163
2.836490 22.308884 29.962735
1.799868 21.358889 30.630163
32.836490 22.308884 -0.037265
31.799868 21.358889 0.630163
32.836490 22.308884 29.962735
31.799868 21.358889 30.630163
-2.813465 3.584347 0.293673
-1.682355 2.583294 0.237590
-2.813465 3.584347 30.293673
-1.682355 2.583294 30.237590
27.186535 3.584347 0.293673
28.317645 2.583294 0.237590
27.186535 3.584347 30.293673
28.317645 2.583294 30.237590
13.385087 20.042670 15.343258
14.601657 19.077882 15.308381
2.112958 19.935636 7.845133
2.532474 19.088063 6.621685
32.112958 19.935636 7.845133
32.532474 19.088063 6.621685
LINES 190 570
2 0 1
2 2 3
2 4 5
2 6 7
2 8 9
2 10 11
2 12 13
2 14 15
2 16 17
2 18 19
2 20 21
2 22 23
2 24 25
2 26 27
2 28 29
2 30 31
2 32 33
2 34 35
2 36 37
2 38 39
2 40 41
2 42 43
2 44 45
2 46 47
2 48 49
2 50 51
2 52 53
2 54 55
2 56 57
2 58 59
2 60 61
2 62 63
2 64 65
2 66 67
2 68 69
2 70 71
2 72 73
2 74 75
2 76 77
2 78 79
2 80 81
2 82 83
2 84 85
2 86 87
2 88 89
2 90 91
2 92 93
2 94 95
2 96 97
2 98 99
2 100 101
2 102 103
2 104 105
2 106 107
2 108 109
2 110 111
2 112 113
2 114 115
2 116 117
2 118 119
2 120 121
2 122 123
2 124 125
2 126 127
2 128 129
2 130 131
2 132 133
2 134 135
2 136 137
2 138 139
2 140 141
2 142 143
2 144 145
2 146 147
2 148 149
2 150 151
2 152 153
2 154 155
2 156 157
2 158 159
2 160 161
2 162 163
2 164 165
2 166 167
2 168 169
2 170 171
2 172 173
2 174 175
2 176 177
2 178 179
2 180 181
2 182 183
2 184 185
2 186 187
2 188 189
2 190 191
2 192 193
2 194 195
2 196 197
2 198 199
2 200 201
2 202 203
2 204 205
2 206 207
2 208 209
2 210 211
2 212 213
2 214 215
2 216 217
2 218 219
2 220 221
2 222 223
2 224 225
2 226 227
2 228 229
2 230 231
2 232 233
2 234 235
2 236 237
2 238 239
2 240 241
2 242 243
2 244 245
2 246 247
2 248 249
2 250 251
2 252 253
2 254 255
2 256 257
2 258 259
2 260 261
2 262 263
2 264 265
2 266 267
2 268 269
2 270 271
2 272 273
2 274 275
2 276 277
2 278 279
2 280 281
2 282 283
2 284 285
2 286 287
2 288 289
2 290 291
2 292 293
2 294 295
2 296 297
2 298 299
2 300 301
2 302 303
2 304 305
2 306 307
2 308 309
2 310 311
2 312 313
2 314 315
2 316 317
2 318 319
2 320 321
2 322 323
2 324 325
2 326 327
2 328 329
2 330 331
2 332 333
2 334 335
2 336 337
2 338 339
2 340 341
2 342 343
2 344 345
2 346 347
2 348 349
2 350 351
2 352 353
2 354 355
2 356 357
2 358 359
2 360 361
2 362 363
2 364 365
2 366 367
2 368 369
2 370 371
2 372 373
2 374 375
2 376 377
2 378 379
POINT_DATA 380
SCALARS my_scalars float
LOOKUP_TABLE default
1.7
1.7
1.7
1.7
1.7
1.7
1.7
1.7
1.7
1.7
1.7
1.7
1.7
1.7
1.7
1.7
1.7
1.7
1.7
1.7
1.7
1.7
1.7
1.7
1.7
1.7
1.7
1.7
1.7
1.7
1.7
1.7
1.7
1.7
1.7
1.7
1.7
1.7
1.7
1.7
1.7
1.7
1.7
1.7
1.7
1.7
1.7
1.7
1.7
1.7
1.7
1.7
1.7
1.7
1.7
1.7
1.7
1.7
1.7
1.7
1.7
1.7
1.7
1.7
1.7
1.7
1.7
1.7
1.7
1.7
1.7
1.7
1.7
1.7
1.7
1.7
1.7
1.7
1.7
1.7
1.7
1.7
1.7
1.7
1.7
1.7
1.7
1.7
1.7
1.7
1.7
1.7
1.7
1.7
1.7
1.7
1.7
1.7
1.7
1.7
1.7
1.7
1.7
1.7
1.7
1.7
1.7
1.7
1.7
1.7
1.7
1.7
1.7
1.7
1.7
1.7
1.7
1.7
1.7
1.7
1.7
1.7
1.7
1.7
1.7
1.7
1.7
1.7
1.7
1.7
1.7
1.7
1.7
1.7
1.7
1.7
1.7
1.7
1.7
1.7
1.7
1.7
1.7
1.7
1.7
1.7
1.7
1.7
1.7
1.7
1.7
1.7
1.7
1.7
1.7
1.7
1.7
1.7
1.7
1.7
1.7
1.7
1.7
1.7
1.7
1.7
1.7
1.7
1.7
1.7
1.7
1.7
1.7
1.7
1.7
1.7
1.7
1.7
1.7
1.7
1.7
1.7
1.7
1.7
1.7
1.7
1.7
1.7
1.7
1.7
1.7
1.7
1.7
1.7
1.7
1.7
1.7
1.7
1.7
1.7
1.7
1.7
1.7
1.7
1.7
1.7
1.7
1.7
1.7
1.7
1.7
1.7
1.7
1.7
1.7
1.7
1.7
1.7
1.7
1.7
1.7
1.7
1.7
1.7
1.7
1.7
1.7
1.7
1.7
1.7
1.7
1.7
1.7
1.7
1.7
1.7
1.7
1.7
1.7
1.7
1.7
1.7
1.7
1.7
1.7
1.7
1.7
1.7
1.7
1.7
1.7
1.7
1.7
1.7
1.7
1.7
1.7
1.7
1.7
1.7
1.7
1.7
1.7
1.7
1.7
1.7
1.7
1.7
1.7
1.7
1.7
1.7
1.7
1.7
1.7
1.7
1.7
1.7
1.7
1.7
1.7
1.7
1.7
1.7
1.7
1.7
1.7
1.7
1.7
1.7
1.7
1.7
1.7
1.7
1.7
1.7
1.7
1.7
1.7
1.7
1.7
1.7
1.7
1.7
1.7
1.7
1.7
1.7
1.7
1.7
1.7
1.7
1.7
1.7
1.7
1.7
1.7
1.7
1.7
1.7
1.7
1.7
1.7
1.7
1.7
1.7
1.7
1.7
1.7
1.7
1.7
1.7
1.7
1.7
1.7
1.7
1.7
1.7
1.7
1.7
1.7
1.7
1.7
1.7
1.7
1.7
1.7
1.7
1.7
1.7
1.7
1.7
1.7
1.7
1.7
1.7
1.7
1.7
1.7
1.7
1.7
1.7
1.7
1.7
1.7
1.7
1.7
1.7
1.7
1.7
1.7
1.7
1.7
1.7
1.7
1.7
1.7
1.7
1.7
1.7
VECTORS vectors float
0.3125 0 0
0.3125 0 0
0.3125 0 0
0.3125 0 0
0.3125 0 0
0.3125 0 0
0.3125 0 0
0.3125 0 0
0.3125 0 0
0.3125 0 0
0.3125 0 0
0.3125 0 0
0.3125 0 0
0.3125 0 0
0.3125 0 0
0.3125 0 0
0.3125 0 0
0.3125 0 0
0.3125 0 0
0.3125 0 0
0.3125 0 0
0.3125 0 0
0.3125 0 0
0.3125 0 0
0.3125 0 0
0.3125 0 0
0.3125 0 0
0.3125 0 0
0.3125 0 0
0.3125 0 0
0.3125 0 0
0.3125 0 0
0.3125 0 0
0.3125 0 0
0.3125 0 0
0.3125 0 0
0.3125 0 0
0.3125 0 0
0.3125 0 0
0.3125 0 0
0.3125 0 0
0.3125 0 0
0.3125 0 0
0.3125 0 0
0.3125 0 0
0.3125 0 0
0.3125 0 0
0.3125 0 0
0.3125 0 0
0.3125 0 0
0.3125 0 0
0.3125 0 0
0.3125 0 0
0.3125 0 0
0.3125 0 0
0.3125 0 0
0.3125 0 0
0.3125 0 0
0.3125 0 0
0.3125 0 0
0.3125 0 0
0.3125 0 0
0.3125 0 0
0.3125 0 0
0.3125 0 0
0.3125 0 0
0.3125 0 0
0.3125 0 0
0.3125 0 0
0.3125 0 0
0.3125 0 0
0.3125 0 0
0.3125 0 0
0.3125 0 0
0.3125 0 0
0.3125 0 0
0.3125 0 0
0.3125 0 0
0.3125 0 0
0.3125 0 0
0.3125 0 0
0.3125 0 0
0.3125 0 0
0.3125 0 0
0.3125 0 0
0.3125 0 0
0.3125 0 0
0.3125 0 0
0.3125 0 0
0.3125 0 0
0.3125 0 0
0.3125 0 0
0.3125 0 0
0.3125 0 0
0.3125 0 0
0.3125 0 0
0.3125 0 0
0.3125 0 0
0.3125 0 0
0.3125 0 0
0.3125 0 0
0.3125 0 0
0.3125 0 0
0.3125 0 0
0.3125 0 0
0.3125 0 0
0.3125 0 0
0.3125 0 0
0.3125 0 0
0.3125 0 0
0.3125 0 0
0.3125 0 0
0.3125 0 0
0.3125 0 0
0.3125 0 0
0.3125 0 0
0.3125 0 0
0.3125 0 0
0.3125 0 0
0.3125 0 0
0.3125 0 0
0.3125 0 0
0.3125 0 0
0.3125 0 0
0.3125 0 0
0.3125 0 0
0.3125 0 0
0.3125 0 0
0.3125 0 0
0.3125 0 0
0.3125 0 0
0.3125 0 0
0.3125 0 0
0.3125 0 0
0.3125 0 0
0.3125 0 0
0.3125 0 0
0.3125 0 0
0.3125 0 0
0.3125 0 0
0.3125 0 0
0.3125 0 0
0.3125 0 0
0.3125 0 0
0.3125 0 0
0.3125 0 0
0.3125 0 0
0.3125 0 0
0.3125 0 0
0.3125 0 0
0.3125 0 0
0.3125 0 0
0.3125 0 0
0.3125 0 0
0.3125 0 0
0.3125 0 0
0.3125 0 0
0.3125 0 0
0.3125 0 0
0.3125 0 0
0.3125 0 0
0.3125 0 0
0.3125 0 0
0.3125 0 0
0.3125 0 0
0.3125 0 0
0.3125 0 0
0.3125 0 0
0.3125 0 0
0.3125 0 0
0.3125 0 0
0.3125 0 0
0.3125 0 0
0.3125 0 0
0.3125 0 0
0.3125 0 0
0.3125 0 0
0.3125 0 0
0.3125 0 0
0.3125 0 0
0.3125 0 0
0.3125 0 0
0.3125 0 0
0.3125 0 0
0.3125 0 0
0.3125 0 0
0.3125 0 0
0.3125 0 0
0.3125 0 0
0.3125 0 0
0.3125 0 0
0.3125 0 0
0.3125 0 0
0.3125 0 0
0.3125 0 0
0.3125 0 0
0.3125 0 0
0.3125 0 0
0.3125 0 0
0.3125 0 0
0.3125 0 0
0.3125 0 0
0.3125 0 0
0.3125 0 0
0.3125 0 0
0.3125 0 0
0.3125 0 0
0.3125 0 0
0.3125 0 0
0.3125 0 0
0.3125 0 0
0.3125 0 0
0.3125 0 0
0.3125 0 0
0.3125 0 0
0.3125 0 0
0.3125 0 0
0.3125 0 0
0.3125 0 0
0.3125 0 0
0.3125 0 0
0.3125 0 0
0.3125 0 0
0.3125 0 0
0.3125 0 0
0.3125 0 0
0.3125 0 0
0.3125 0 0
0.3125 0 0
0.3125 0 0
0.3125 0 0
0.3125 0 0
0.3125 0 0
0.3125 0 0
0.3125 0 0
0.3125 0 0
0.3125 0 0
0.3125 0 0
0.3125 0 0
0.3125 0 0
0.3125 0 0
0.3125 0 0
0.3125 0 0
0.3125 0 0
0.3125 0 0
0.3125 0 0
0.3125 0 0
0.3125 0 0
0.3125 0 0
0.3125 0 0
0.3125 0 0
0.3125 0 0
0.3125 0 0
0.3125 0 0
0.3125 0 0
0.3125 0 0
0.3125 0 0
0.3125 0 0
0.3125 0 0
0.3125 0 0
0.3125 0 0
0.3125 0 0
0.3125 0 0
0.3125 0 0
0.3125 0 0
0.3125 0 0
0.3125 0 0
0.3125 0 0
0.3125 0 0
0.3125 0 0
0.3125 0 0
0.3125 0 0
0.3125 0 0
0.3125 0 0
0.3125 0 0
0.3125 0 0
0.3125 0 0
0.3125 0 0
0.3125 0 0
0.3125 0 0
0.3125 0 0
0.3125 0 0
0.3125 0 0
0.3125 0 0
0.3125 0 0
0.3125 0 0
0.3125 0 0
0.3125 0 0
0.3125 0 0
0.3125 0 0
0.3125 0 0
0.3125 0 0
0.3125 0 0
0.3125 0 0
0.3125 0 0
0.3125 0 0
0.3125 0 0
0.3125 0 0
0.3125 0 0
0.3125 0 0
0.3125 0 0
0.3125 0 0
0.3125 0 0
0.3125 0 0
0.3125 0 0
0.3125 0 0
0.3125 0 0
0.3125 0 0
0.3125 0 0
0.3125 0 0
0.3125 0 0
0.3125 0 0
0.3125 0 0
0.3125 0 0
0.3125 0 0
0.3125 0 0
0.3125 0 0
0.3125 0 0
0.3125 0 0
0.3125 0 0
0.3125 0 0
0.3125 0 0
0.3125 0 0
0.3125 0 0
0.3125 0 0
0.3125 0 0
0.3125 0 0
0.3125 0 0
0.3125 0 0
0.3125 0 0
0.3125 0 0
0.3125 0 0
0.3125 0 0
0.3125 0 0
0.3125 0 0
0.3125 0 0
0.3125 0 0
0.3125 0 0
0.3125 0 0
0.3125 0 0
0.3125 0 0
0.3125 0 0
0.3125 0 0
0.3125 0 0
0.3125 0 0
0.3125 0 0
0.3125 0 0
0.3125 0 0
0.3125 0 0
0.3125 0 0
0.3125 0 0
0.3125 0 0
0.3125 0 0
0.3125 0 0
0.3125 0 0
0.3125 0 0
0.3125 0 0
0.3125 0 0
0.3125 0 0
0.3125 0 0
0.3125 0 0
0.3125 0 0
0.3125 0 0
0.3125 0 0
0.3125 0 0
0.3125 0 0
0.3125 0 0
0.3125 0 0
0.3125 0 0
0.3125 0 0
0.3125 0 0
0.3125 0 0
0.3125 0 0
0.3125 0 0
0.3125 0 0
0.3125 0 0
0.3125 0 0
0.3125 0 0
0.3125 0 0
0.3125 0 0
