# vtk DataFile Version 1.0
Cube
ASCII

DATASET POLYDATA
POINTS 560 float
7.861540 23.007684 16.178621
9.352386 22.378520 15.733812
26.052333 1.919471 11.570945
26.868060 3.092989 10.934288
26.052333 31.919471 11.570945
26.868060 33.092989 10.934288
14.315319 25.935523 -0.733677
15.757857 26.472262 -0.580415
14.315319 25.935523 29.266323
15.757857 26.472262 29.419585
4.669883 7.572604 5.963600
5.622745 8.363723 4.985042
1.810976 22.883143 14.766769
2.397605 23.344123 13.507176
31.810976 22.883143 14.766769
32.397605 23.344123 13.507176
10.082224 6.423007 -0.693575
10.147384 5.033178 -0.113229
10.082224 6.423007 29.306425
10.147384 5.033178 29.886771
-2.463065 6.093687 23.646430
-3.397146 6.218092 24.893428
27.536935 6.093687 23.646430
26.602854 6.218092 24.893428
17.692396 7.709790 -1.411336
17.163398 7.206177 -2.820586
17.692396 7.709790 28.588664
17.163398 7.206177 27.179414
1.295947 3.941880 18.340345
0.407803 4.542518 19.409828
31.295947 3.941880 18.340345
30.407803 4.542518 19.409828
9.825544 19.971268 -1.741156
9.256209 18.889155 -1.096045
9.825544 19.971268 28.258844
9.256209 18.889155 28.903955
1.408672 10.609836 22.211536
2.587413 11.598367 21.709357
31.408672 10.609836 22.211536
32.587413 11.598367 21.709357
1.357440 22.035408 0.392952
2.034353 21.983230 1.773276
1.357440 22.035408 30.392952
2.034353 21.983230 31.773276
31.357440 22.035408 0.392952
32.034353 21.983230 1.773276
31.357440 22.035408 30.392952
32.034353 21.983230 31.773276
-2.455879 25.221148 0.807967
-2.364285 25.497382 2.370174
-2.455879 25.221148 30.807967
-2.364285 25.497382 32.370174
27.544121 25.221148 0.807967
27.635715 25.497382 2.370174
27.544121 25.221148 30.807967
27.635715 25.497382 32.370174
15.079515 20.451444 13.275140
15.049154 21.888411 13.793712
10.673367 -1.442785 25.434494
11.781864 -1.513793 26.634876
10.673367 28.557215 25.434494
11.781864 28.486207 26.634876
6.461678 13.469021 -1.283949
5.620780 14.564720 -1.875407
6.461678 13.469021 28.716051
5.620780 14.564720 28.124593
2.580491 9.147401 16.201651
2.245856 10.482602 16.802631
32.580491 9.147401 16.201651
32.245856 10.482602 16.802631
-1.777979 23.979418 9.328954
-2.172566 24.798988 10.576704
28.222021 23.979418 9.328954
27.827434 24.798988 10.576704
22.500223 19.451858 21.674822
22.800491 20.428647 22.865643
21.621366 2.567110 8.369512
22.617931 2.519611 7.169334
21.621366 32.567110 8.369512
22.617931 32.519611 7.169334
12.178360 0.107500 14.463051
11.300461 -1.119380 14.992387
12.178360 30.107500 14.463051
11.300461 28.880620 14.992387
11.351600 25.803031 7.290315
11.610774 24.289943 7.287475
-3.066559 25.042510 19.467652
-2.000174 24.411627 18.461786
26.933441 25.042510 19.467652
27.999826 24.411627 18.461786
11.046813 -2.008120 18.945207
12.557807 -2.082268 18.751658
11.046813 27.991880 18.945207
12.557807 27.917732 18.751658
6.720923 -1.481789 25.424779
6.781007 -0.505463 24.181134
6.720923 28.518211 25.424779
6.781007 29.494537 24.181134
9.868693 6.472773 3.712388
8.885024 5.311025 3.506815
0.273838 27.170844 16.460569
1.366824 26.767255 15.335451
30.273838 27.170844 16.460569
31.366824 26.767255 15.335451
-3.277146 16.784916 19.960196
-2.744381 17.163527 21.337701
26.722854 16.784916 19.960196
27.255619 17.163527 21.337701
2.279689 3.146061 3.659240
0.897546 2.577381 4.319330
2.279689 33.146061 3.659240
0.897546 32.577381 4.319330
32.279689 3.146061 3.659240
30.897546 2.577381 4.319330
32.279689 33.146061 3.659240
30.897546 32.577381 4.319330
2.541659 4.015063 23.678084
3.977962 4.365391 22.994794
12.815690 18.505554 19.590868
11.320801 18.788313 20.166719
15.242512 12.299666 -3.351691
15.827938 12.207836 -1.990623
15.242512 12.299666 26.648309
15.827938 12.207836 28.009377
14.014704 1.432081 24.941358
14.812132 1.458924 26.195256
14.014704 31.432081 24.941358
14.812132 31.458924 26.195256
16.625028 14.057336 6.481751
16.287567 15.241697 7.380085
23.326547 15.969730 22.558778
23.261603 14.563763 21.965064
15.193196 -3.370170 4.865864
16.363253 -2.223208 4.677742
15.193196 26.629830 4.865864
16.363253 27.776792 4.677742
19.423362 22.305534 11.722266
20.676357 21.586442 11.044663
13.214151 1.402890 18.215434
12.133554 2.282619 18.836008
13.214151 31.402890 18.215434
12.133554 32.282619 18.836008
5.042374 22.955195 18.875790
5.977099 22.486404 19.939234
20.252961 18.279327 8.976050
19.552394 18.912535 7.804244
23.068381 -0.873265 15.355684
21.583308 -1.361412 15.637158
23.068381 29.126735 15.355684
21.583308 28.638588 15.637158
25.032696 23.989466 13.840807
24.690702 23.097651 12.631736
7.269290 -2.586372 17.560416
7.185771 -3.289210 16.166710
7.269290 27.413628 17.560416
7.185771 26.710790 16.166710
17.409644 23.345522 4.756583
17.442815 23.283324 6.168653
10.165901 23.644648 19.623918
10.234816 23.361795 21.070565
2.749654 21.781668 22.561037
1.888123 21.345803 23.844577
32.749654 21.781668 22.561037
31.888123 21.345803 23.844577
3.814586 19.908913 8.117644
4.865327 20.965191 8.063188
0.262927 -2.330605 21.425182
1.424942 -3.428880 21.727345
0.262927 27.669395 21.425182
1.424942 26.571120 21.727345
30.262927 -2.330605 21.425182
31.424942 -3.428880 21.727345
30.262927 27.669395 21.425182
31.424942 26.571120 21.727345
12.945890 25.472395 11.608946
11.643800 25.407157 12.436310
17.205341 4.750191 17.292799
15.662652 4.203255 17.336534
-1.306875 9.418189 25.851228
-1.844004 10.054436 27.162920
28.693125 9.418189 25.851228
28.155996 10.054436 27.162920
4.998223 2.728121 9.425231
3.598492 3.066564 9.947863
4.998223 32.728121 9.425231
3.598492 33.066564 9.947863
-0.509188 16.525250 24.417979
0.750787 15.614157 24.535769
29.490812 16.525250 24.417979
30.750787 15.614157 24.535769
14.280930 5.804536 1.076287
13.541169 6.731251 2.155065
14.280930 5.804536 31.076287
13.541169 6.731251 32.155065
17.729834 1.532686 21.632629
16.282625 1.968112 21.116959
17.729834 31.532686 21.632629
16.282625 31.968112 21.116959
-1.431159 17.165346 7.098159
-0.719833 18.550553 6.448901
28.568841 17.165346 7.098159
29.280167 18.550553 6.448901
18.919879 3.225923 -2.266601
17.556454 2.686482 -1.709208
18.919879 3.225923 27.733399
17.556454 2.686482 28.290792
18.919879 33.225923 -2.266601
17.556454 32.686482 -1.709208
18.919879 33.225923 27.733399
17.556454 32.686482 28.290792
6.018546 10.268417 1.966836
5.528403 11.590291 2.560257
6.018546 10.268417 31.966836
5.528403 11.590291 32.560257
15.140149 17.685344 3.309639
14.677678 16.164229 2.998282
24.359126 -2.964510 11.266071
24.273270 -1.749376 10.275531
24.359126 27.035490 11.266071
24.273270 28.250624 10.275531
18.881723 24.704155 15.367382
20.120974 25.002267 14.586122
1.639098 -2.290492 -2.184662
1.698558 -2.593102 -3.680916
1.639098 -2.290492 27.815338
1.698558 -2.593102 26.319084
1.639098 27.709508 -2.184662
1.698558 27.406898 -3.680916
1.639098 27.709508 27.815338
1.698558 27.406898 26.319084
31.639098 -2.290492 -2.184662
31.698558 -2.593102 -3.680916
31.639098 -2.290492 27.815338
31.698558 -2.593102 26.319084
31.639098 27.709508 -2.184662
31.698558 27.406898 -3.680916
31.639098 27.709508 27.815338
31.698558 27.406898 26.319084
23.838371 7.752207 16.399000
23.745946 6.303854 17.089631
5.411102 12.159133 15.838666
4.622215 13.293564 16.329634
22.404387 9.253174 -1.697338
23.193265 9.013098 -3.005246
22.404387 9.253174 28.302662
23.193265 9.013098 26.994754
17.135820 8.698081 9.054552
15.660981 8.926309 8.639610
1.634382 13.410157 10.997342
2.598626 12.401877 11.776882
31.634382 13.410157 10.997342
32.598626 12.401877 11.776882
19.178167 10.116006 3.372201
20.427939 9.863114 2.630990
19.178167 10.116006 33.372201
20.427939 9.863114 32.630990
17.429835 -1.222834 12.743590
18.141317 -1.670203 14.050625
17.429835 28.777166 12.743590
18.141317 28.329797 14.050625
-1.034543 1.895293 21.473255
-2.335871 1.803320 20.577304
-1.034543 31.895293 21.473255
-2.335871 31.803320 20.577304
28.965457 1.895293 21.473255
27.664129 1.803320 20.577304
28.965457 31.895293 21.473255
27.664129 31.803320 20.577304
8.289292 9.253520 20.198771
9.129691 9.778107 21.438448
20.676267 4.719629 23.592712
21.466928 5.233113 22.221284
-1.960000 19.780362 12.863289
-3.065380 20.232979 13.761131
28.040000 19.780362 12.863289
26.934620 20.232979 13.761131
23.853607 11.059437 23.528069
25.251320 11.200313 23.003299
10.678329 20.970935 8.431459
11.089450 19.800487 9.169706
12.236629 15.286688 24.614343
13.024941 16.260510 23.604571
-1.660960 0.977877 15.700409
-2.152821 0.470902 17.099089
-1.660960 30.977877 15.700409
-2.152821 30.470902 17.099089
28.339040 0.977877 15.700409
27.847179 0.470902 17.099089
28.339040 30.977877 15.700409
27.847179 30.470902 17.099089
5.364127 25.777999 13.125039
4.870869 25.725850 11.586424
23.836347 19.007866 11.863583
23.338675 18.451895 13.147507
16.393434 18.239310 18.027358
17.756466 17.470675 18.264548
18.071516 9.769121 24.337075
19.027405 10.253785 23.076702
3.849166 0.213049 26.449148
4.136860 1.572767 25.707516
3.849166 30.213049 26.449148
4.136860 31.572767 25.707516
4.478713 4.941661 15.997158
5.426842 4.207853 16.942776
10.017631 10.355522 2.690698
10.858740 11.503934 3.398160
11.790841 10.189711 8.183663
10.281843 10.138325 8.167261
26.179407 5.514967 6.012412
24.905697 5.889936 5.223876
4.017443 -1.082532 9.627779
5.567385 -1.281340 9.854156
4.017443 28.917468 9.627779
5.567385 28.718660 9.854156
15.353099 9.851374 20.918720
14.331132 8.733754 21.046780
1.283594 -2.585639 6.035211
-0.034813 -2.539835 5.189827
1.283594 27.414361 6.035211
-0.034813 27.460165 5.189827
31.283594 -2.585639 6.035211
29.965187 -2.539835 5.189827
31.283594 27.414361 6.035211
29.965187 27.460165 5.189827
7.089331 3.539073 -1.278631
6.042147 2.653384 -0.699166
7.089331 3.539073 28.721369
6.042147 2.653384 29.300834
7.058586 13.248273 11.523214
8.405981 13.734732 10.939400
8.246810 20.320408 4.961705
6.908314 20.746941 4.359126
12.119972 -0.355973 1.240985
12.639377 -0.268429 -0.165637
12.119972 -0.355973 31.240985
12.639377 -0.268429 29.834363
12.119972 29.644027 1.240985
12.639377 29.731571 -0.165637
12.119972 29.644027 31.240985
12.639377 29.731571 29.834363
-2.874253 5.213342 2.223188
-2.513539 4.288943 0.915377
-2.874253 5.213342 32.223188
-2.513539 4.288943 30.915377
27.125747 5.213342 2.223188
27.486461 4.288943 0.915377
27.125747 5.213342 32.223188
27.486461 4.288943 30.915377
12.060569 21.803970 0.409174
12.745067 22.475039 1.534462
12.060569 21.803970 30.409174
12.745067 22.475039 31.534462
17.063847 14.030429 13.217887
15.899221 14.785827 12.409146
21.795284 22.231947 2.724489
20.434441 21.752674 3.036585
21.795284 22.231947 32.724489
20.434441 21.752674 33.036585
23.354029 2.721242 19.596091
24.408144 1.640754 19.178566
23.354029 32.721242 19.596091
24.408144 31.640754 19.178566
11.452060 9.695034 -1.373082
10.988144 11.125647 -1.725172
11.452060 9.695034 28.626918
10.988144 11.125647 28.274828
13.261529 -0.484053 9.572863
14.038635 -0.337471 8.268957
13.261529 29.515947 9.572863
14.038635 29.662529 8.268957
-0.690891 17.368936 10.430142
0.388507 17.459479 11.485631
29.309109 17.368936 10.430142
30.388507 17.459479 11.485631
-1.437823 11.446048 19.209864
-1.508597 12.812890 19.877549
28.562177 11.446048 19.209864
28.491403 12.812890 19.877549
20.454392 12.732780 12.438324
19.481643 11.686377 11.991392
-0.315624 0.967069 -0.822791
0.698312 1.076572 0.266691
-0.315624 0.967069 29.177209
0.698312 1.076572 30.266691
-0.315624 30.967069 -0.822791
0.698312 31.076572 0.266691
-0.315624 30.967069 29.177209
0.698312 31.076572 30.266691
29.684376 0.967069 -0.822791
30.698312 1.076572 0.266691
29.684376 0.967069 29.177209
30.698312 1.076572 30.266691
29.684376 30.967069 -0.822791
30.698312 31.076572 0.266691
29.684376 30.967069 29.177209
30.698312 31.076572 30.266691
18.471690 22.370582 -2.972628
19.910165 22.468242 -2.220155
18.471690 22.370582 27.027372
19.910165 22.468242 27.779845
13.923261 2.410227 3.821533
12.350309 2.799785 3.685900
13.923261 32.410227 3.821533
12.350309 32.799785 3.685900
15.358721 22.128297 19.970344
14.914710 22.125569 18.420462
11.329361 5.177435 7.077618
11.308017 4.094376 8.222437
5.586674 25.821687 22.349821
5.113785 26.566243 21.218774
5.461118 6.064260 11.810636
5.108906 7.083982 10.666999
10.981993 9.843352 12.838575
10.204949 8.699510 13.397390
1.174439 7.361069 6.952592
-0.276771 7.748003 6.632794
31.174439 7.361069 6.952592
29.723229 7.748003 6.632794
7.200141 20.330314 13.527309
6.301544 20.437024 12.189316
16.399323 18.970281 22.850100
16.048437 19.343359 24.358454
26.142965 17.470600 -1.777204
27.574497 16.983144 -2.296399
26.142965 17.470600 28.222796
27.574497 16.983144 27.703601
14.849265 10.040870 4.590922
15.877302 11.013152 5.269155
25.668688 0.665699 4.951670
25.039169 1.876434 4.377929
25.668688 30.665699 4.951670
25.039169 31.876434 4.377929
23.130622 -1.409925 25.958975
24.069884 -1.527569 24.660935
23.130622 28.590075 25.958975
24.069884 28.472431 24.660935
4.990183 0.258752 5.680684
6.461497 -0.309321 5.898574
4.990183 30.258752 5.680684
6.461497 29.690679 5.898574
17.547356 1.914230 2.505671
18.614551 0.661607 2.763613
17.547356 1.914230 32.505671
18.614551 0.661607 32.763613
17.547356 31.914230 2.505671
18.614551 30.661607 2.763613
17.547356 31.914230 32.505671
18.614551 30.661607 32.763613
8.088988 4.545614 20.497450
9.288127 5.178374 20.821833
21.002898 0.624390 -1.169806
21.108733 -0.910075 -0.716162
21.002898 0.624390 28.830194
21.108733 -0.910075 29.283838
21.002898 30.624390 -1.169806
21.108733 29.089925 -0.716162
21.002898 30.624390 28.830194
21.108733 29.089925 29.283838
2.692027 7.033235 -0.226994
3.628296 7.652106 -1.241080
2.692027 7.033235 29.773006
3.628296 7.652106 28.758920
23.264845 11.595888 15.677373
22.072874 11.272414 16.490272
20.811604 -1.588349 7.945990
21.158956 -2.459133 6.838180
20.811604 28.411651 7.945990
21.158956 27.540867 6.838180
15.015874 4.961003 8.311168
16.657108 4.819938 8.655305
10.585419 18.820990 14.027222
11.399144 17.701408 13.223607
7.209717 24.601561 3.935718
6.108949 25.537218 4.406603
7.035760 13.649985 19.568805
8.283184 13.529466 20.405844
25.952572 24.818690 25.838146
26.885253 25.246452 24.680283
12.126154 11.954624 21.450169
13.260469 13.064086 21.338115
13.227352 22.263808 -2.668761
14.304811 21.299905 -3.135832
13.227352 22.263808 27.331239
14.304811 21.299905 26.864168
25.028221 19.944446 1.493665
26.129093 19.147860 2.229361
25.028221 19.944446 31.493665
26.129093 19.147860 32.229361
-3.094173 -0.661506 1.108006
-2.376167 -0.036065 2.336962
-3.094173 -0.661506 31.108006
-2.376167 -0.036065 32.336962
-3.094173 29.338494 1.108006
-2.376167 29.963935 2.336962
-3.094173 29.338494 31.108006
-2.376167 29.963935 32.336962
26.905827 -0.661506 1.108006
27.623833 -0.036065 2.336962
26.905827 -0.661506 31.108006
27.623833 -0.036065 32.336962
26.905827 29.338494 1.108006
27.623833 29.963935 2.336962
26.905827 29.338494 31.108006
27.623833 29.963935 32.336962
20.934233 11.549496 6.760536
22.036433 11.406982 7.804197
1.360854 6.586099 3.037292
0.071185 7.189103 3.039778
31.360854 6.586099 3.037292
30.071185 7.189103 3.039778
13.314265 16.539839 -1.754210
14.094818 16.759234 -0.387618
13.314265 16.539839 28.245790
14.094818 16.759234 29.612382
9.731792 5.140582 25.093956
10.293202 6.498943 24.628038
23.831468 13.628354 26.815160
24.887777 12.476855 27.031359
-1.501749 -1.088137 8.154049
-2.246889 -1.069503 9.565458
-1.501749 28.911863 8.154049
-2.246889 28.930497 9.565458
28.498251 -1.088137 8.154049
27.753111 -1.069503 9.565458
28.498251 28.911863 8.154049
27.753111 28.930497 9.565458
0.618454 5.892047 11.824085
1.313457 4.973078 12.717246
30.618454 5.892047 11.824085
31.313457 4.973078 12.717246
4.377888 -2.153360 1.631145
4.330982 -1.367333 0.414825
4.377888 -2.153360 31.631145
4.330982 -1.367333 30.414825
4.377888 27.846640 1.631145
4.330982 28.632667 0.414825
4.377888 27.846640 31.631145
4.330982 28.632667 30.414825
7.478888 14.779687 24.261506
7.705223 13.271106 24.126939
10.270913 18.528221 24.914799
11.541276 19.437928 25.223255
23.669329 3.876950 0.782111
22.636418 4.229662 -0.284632
23.669329 3.876950 30.782111
22.636418 4.229662 29.715368
9.195547 4.574078 11.723349
10.535480 4.798064 12.489015
-0.333847 23.244927 26.319792
-1.453691 22.898840 27.338973
29.666153 23.244927 26.319792
28.546309 22.898840 27.338973
20.276238 0.805567 24.547170
19.812215 -0.631089 23.973119
20.276238 30.805567 24.547170
19.812215 29.368911 23.973119
4.449743 20.283749 26.531793
3.343987 20.657738 27.386464
16.647973 4.844823 4.568254
16.948679 6.161081 3.712291
LINES 280 840
2 0 1
2 2 3
2 4 5
2 6 7
2 8 9
2 10 11
2 12 13
2 14 15
2 16 17
2 18 19
2 20 21
2 22 23
2 24 25
2 26 27
2 28 29
2 30 31
2 32 33
2 34 35
2 36 37
2 38 39
2 40 41
2 42 43
2 44 45
2 46 47
2 48 49
2 50 51
2 52 53
2 54 55
2 56 57
2 58 59
2 60 61
2 62 63
2 64 65
2 66 67
2 68 69
2 70 71
2 72 73
2 74 75
2 76 77
2 78 79
2 80 81
2 82 83
2 84 85
2 86 87
2 88 89
2 90 91
2 92 93
2 94 95
2 96 97
2 98 99
2 100 101
2 102 103
2 104 105
2 106 107
2 108 109
2 110 111
2 112 113
2 114 115
2 116 117
2 118 119
2 120 121
2 122 123
2 124 125
2 126 127
2 128 129
2 130 131
2 132 133
2 134 135
2 136 137
2 138 139
2 140 141
2 142 143
2 144 145
2 146 147
2 148 149
2 150 151
2 152 153
2 154 155
2 156 157
2 158 159
2 160 161
2 162 163
2 164 165
2 166 167
2 168 169
2 170 171
2 172 173
2 174 175
2 176 177
2 178 179
2 180 181
2 182 183
2 184 185
2 186 187
2 188 189
2 190 191
2 192 193
2 194 195
2 196 197
2 198 199
2 200 201
2 202 203
2 204 205
2 206 207
2 208 209
2 210 211
2 212 213
2 214 215
2 216 217
2 218 219
2 220 221
2 222 223
2 224 225
2 226 227
2 228 229
2 230 231
2 232 233
2 234 235
2 236 237
2 238 239
2 240 241
2 242 243
2 244 245
2 246 247
2 248 249
2 250 251
2 252 253
2 254 255
2 256 257
2 258 259
2 260 261
2 262 263
2 264 265
2 266 267
2 268 269
2 270 271
2 272 273
2 274 275
2 276 277
2 278 279
2 280 281
2 282 283
2 284 285
2 286 287
2 288 289
2 290 291
2 292 293
2 294 295
2 296 297
2 298 299
2 300 301
2 302 303
2 304 305
2 306 307
2 308 309
2 310 311
2 312 313
2 314 315
2 316 317
2 318 319
2 320 321
2 322 323
2 324 325
2 326 327
2 328 329
2 330 331
2 332 333
2 334 335
2 336 337
2 338 339
2 340 341
2 342 343
2 344 345
2 346 347
2 348 349
2 350 351
2 352 353
2 354 355
2 356 357
2 358 359
2 360 361
2 362 363
2 364 365
2 366 367
2 368 369
2 370 371
2 372 373
2 374 375
2 376 377
2 378 379
2 380 381
2 382 383
2 384 385
2 386 387
2 388 389
2 390 391
2 392 393
2 394 395
2 396 397
2 398 399
2 400 401
2 402 403
2 404 405
2 406 407
2 408 409
2 410 411
2 412 413
2 414 415
2 416 417
2 418 419
2 420 421
2 422 423
2 424 425
2 426 427
2 428 429
2 430 431
2 432 433
2 434 435
2 436 437
2 438 439
2 440 441
2 442 443
2 444 445
2 446 447
2 448 449
2 450 451
2 452 453
2 454 455
2 456 457
2 458 459
2 460 461
2 462 463
2 464 465
2 466 467
2 468 469
2 470 471
2 472 473
2 474 475
2 476 477
2 478 479
2 480 481
2 482 483
2 484 485
2 486 487
2 488 489
2 490 491
2 492 493
2 494 495
2 496 497
2 498 499
2 500 501
2 502 503
2 504 505
2 506 507
2 508 509
2 510 511
2 512 513
2 514 515
2 516 517
2 518 519
2 520 521
2 522 523
2 524 525
2 526 527
2 528 529
2 530 531
2 532 533
2 534 535
2 536 537
2 538 539
2 540 541
2 542 543
2 544 545
2 546 547
2 548 549
2 550 551
2 552 553
2 554 555
2 556 557
2 558 559
POINT_DATA 560
SCALARS my_scalars float
LOOKUP_TABLE default
1.7
1.7
1.7
1.7
1.7
1.7
1.7
1.7
1.7
1.7
1.7
1.7
1.7
1.7
1.7
1.7
1.7
1.7
1.7
1.7
1.7
1.7
1.7
1.7
1.7
1.7
1.7
1.7
1.7
1.7
1.7
1.7
1.7
1.7
1.7
1.7
1.7
1.7
1.7
1.7
1.7
1.7
1.7
1.7
1.7
1.7
1.7
1.7
1.7
1.7
1.7
1.7
1.7
1.7
1.7
1.7
1.7
1.7
1.7
1.7
1.7
1.7
1.7
1.7
1.7
1.7
1.7
1.7
1.7
1.7
1.7
1.7
1.7
1.7
1.7
1.7
1.7
1.7
1.7
1.7
1.7
1.7
1.7
1.7
1.7
1.7
1.7
1.7
1.7
1.7
1.7
1.7
1.7
1.7
1.7
1.7
1.7
1.7
1.7
1.7
1.7
1.7
1.7
1.7
1.7
1.7
1.7
1.7
1.7
1.7
1.7
1.7
1.7
1.7
1.7
1.7
1.7
1.7
1.7
1.7
1.7
1.7
1.7
1.7
1.7
1.7
1.7
1.7
1.7
1.7
1.7
1.7
1.7
1.7
1.7
1.7
1.7
1.7
1.7
1.7
1.7
1.7
1.7
1.7
1.7
1.7
1.7
1.7
1.7
1.7
1.7
1.7
1.7
1.7
1.7
1.7
1.7
1.7
1.7
1.7
1.7
1.7
1.7
1.7
1.7
1.7
1.7
1.7
1.7
1.7
1.7
1.7
1.7
1.7
1.7
1.7
1.7
1.7
1.7
1.7
1.7
1.7
1.7
1.7
1.7
1.7
1.7
1.7
1.7
1.7
1.7
1.7
1.7
1.7
1.7
1.7
1.7
1.7
1.7
1.7
1.7
1.7
1.7
1.7
1.7
1.7
1.7
1.7
1.7
1.7
1.7
1.7
1.7
1.7
1.7
1.7
1.7
1.7
1.7
1.7
1.7
1.7
1.7
1.7
1.7
1.7
1.7
1.7
1.7
1.7
1.7
1.7
1.7
1.7
1.7
1.7
1.7
1.7
1.7
1.7
1.7
1.7
1.7
1.7
1.7
1.7
1.7
1.7
1.7
1.7
1.7
1.7
1.7
1.7
1.7
1.7
1.7
1.7
1.7
1.7
1.7
1.7
1.7
1.7
1.7
1.7
1.7
1.7
1.7
1.7
1.7
1.7
1.7
1.7
1.7
1.7
1.7
1.7
1.7
1.7
1.7
1.7
1.7
1.7
1.7
1.7
1.7
1.7
1.7
1.7
1.7
1.7
1.7
1.7
1.7
1.7
1.7
1.7
1.7
1.7
1.7
1.7
1.7
1.7
1.7
1.7
1.7
1.7
1.7
1.7
1.7
1.7
1.7
1.7
1.7
1.7
1.7
1.7
1.7
1.7
1.7
1.7
1.7
1.7
1.7
1.7
1.7
1.7
1.7
1.7
1.7
1.7
1.7
1.7
1.7
1.7
1.7
1.7
1.7
1.7
1.7
1.7
1.7
1.7
1.7
1.7
1.7
1.7
1.7
1.7
1.7
1.7
1.7
1.7
1.7
1.7
1.7
1.7
1.7
1.7
1.7
1.7
1.7
1.7
1.7
1.7
1.7
1.7
1.7
1.7
1.7
1.7
1.7
1.7
1.7
1.7
1.7
1.7
1.7
1.7
1.7
1.7
1.7
1.7
1.7
1.7
1.7
1.7
1.7
1.7
1.7
1.7
1.7
1.7
1.7
1.7
1.7
1.7
1.7
1.7
1.7
1.7
1.7
1.7
1.7
1.7
1.7
1.7
1.7
1.7
1.7
1.7
1.7
1.7
1.7
1.7
1.7
1.7
1.7
1.7
1.7
1.7
1.7
1.7
1.7
1.7
1.7
1.7
1.7
1.7
1.7
1.7
1.7
1.7
1.7
1.7
1.7
1.7
1.7
1.7
1.7
1.7
1.7
1.7
1.7
1.7
1.7
1.7
1.7
1.7
1.7
1.7
1.7
1.7
1.7
1.7
1.7
1.7
1.7
1.7
1.7
1.7
1.7
1.7
1.7
1.7
1.7
1.7
1.7
1.7
1.7
1.7
1.7
1.7
1.7
1.7
1.7
1.7
1.7
1.7
1.7
1.7
1.7
1.7
1.7
1.7
1.7
1.7
1.7
1.7
1.7
1.7
1.7
1.7
1.7
1.7
1.7
1.7
1.7
1.7
1.7
1.7
1.7
1.7
1.7
1.7
1.7
1.7
1.7
1.7
1.7
1.7
1.7
1.7
1.7
1.7
1.7
1.7
1.7
1.7
1.7
1.7
1.7
1.7
1.7
1.7
1.7
1.7
1.7
1.7
1.7
1.7
1.7
1.7
1.7
1.7
1.7
1.7
1.7
1.7
1.7
1.7
1.7
1.7
1.7
1.7
1.7
1.7
1.7
1.7
1.7
1.7
1.7
1.7
1.7
1.7
1.7
1.7
1.7
1.7
VECTORS vectors float
0.3125 0 0
0.3125 0 0
0.3125 0 0
0.3125 0 0
0.3125 0 0
0.3125 0 0
0.3125 0 0
0.3125 0 0
0.3125 0 0
0.3125 0 0
0.3125 0 0
0.3125 0 0
0.3125 0 0
0.3125 0 0
0.3125 0 0
0.3125 0 0
0.3125 0 0
0.3125 0 0
0.3125 0 0
0.3125 0 0
0.3125 0 0
0.3125 0 0
0.3125 0 0
0.3125 0 0
0.3125 0 0
0.3125 0 0
0.3125 0 0
0.3125 0 0
0.3125 0 0
0.3125 0 0
0.3125 0 0
0.3125 0 0
0.3125 0 0
0.3125 0 0
0.3125 0 0
0.3125 0 0
0.3125 0 0
0.3125 0 0
0.3125 0 0
0.3125 0 0
0.3125 0 0
0.3125 0 0
0.3125 0 0
0.3125 0 0
0.3125 0 0
0.3125 0 0
0.3125 0 0
0.3125 0 0
0.3125 0 0
0.3125 0 0
0.3125 0 0
0.3125 0 0
0.3125 0 0
0.3125 0 0
0.3125 0 0
0.3125 0 0
0.3125 0 0
0.3125 0 0
0.3125 0 0
0.3125 0 0
0.3125 0 0
0.3125 0 0
0.3125 0 0
0.3125 0 0
0.3125 0 0
0.3125 0 0
0.3125 0 0
0.3125 0 0
0.3125 0 0
0.3125 0 0
0.3125 0 0
0.3125 0 0
0.3125 0 0
0.3125 0 0
0.3125 0 0
0.3125 0 0
0.3125 0 0
0.3125 0 0
0.3125 0 0
0.3125 0 0
0.3125 0 0
0.3125 0 0
0.3125 0 0
0.3125 0 0
0.3125 0 0
0.3125 0 0
0.3125 0 0
0.3125 0 0
0.3125 0 0
0.3125 0 0
0.3125 0 0
0.3125 0 0
0.3125 0 0
0.3125 0 0
0.3125 0 0
0.3125 0 0
0.3125 0 0
0.3125 0 0
0.3125 0 0
0.3125 0 0
0.3125 0 0
0.3125 0 0
0.3125 0 0
0.3125 0 0
0.3125 0 0
0.3125 0 0
0.3125 0 0
0.3125 0 0
0.3125 0 0
0.3125 0 0
0.3125 0 0
0.3125 0 0
0.3125 0 0
0.3125 0 0
0.3125 0 0
0.3125 0 0
0.3125 0 0
0.3125 0 0
0.3125 0 0
0.3125 0 0
0.3125 0 0
0.3125 0 0
0.3125 0 0
0.3125 0 0
0.3125 0 0
0.3125 0 0
0.3125 0 0
0.3125 0 0
0.3125 0 0
0.3125 0 0
0.3125 0 0
0.3125 0 0
0.3125 0 0
0.3125 0 0
0.3125 0 0
0.3125 0 0
0.3125 0 0
0.3125 0 0
0.3125 0 0
0.3125 0 0
0.3125 0 0
0.3125 0 0
0.3125 0 0
0.3125 0 0
0.3125 0 0
0.3125 0 0
0.3125 0 0
0.3125 0 0
0.3125 0 0
0.3125 0 0
0.3125 0 0
0.3125 0 0
0.3125 0 0
0.3125 0 0
0.3125 0 0
0.3125 0 0
0.3125 0 0
0.3125 0 0
0.3125 0 0
0.3125 0 0
0.3125 0 0
0.3125 0 0
0.3125 0 0
0.3125 0 0
0.3125 0 0
0.3125 0 0
0.3125 0 0
0.3125 0 0
0.3125 0 0
0.3125 0 0
0.3125 0 0
0.3125 0 0
0.3125 0 0
0.3125 0 0
0.3125 0 0
0.3125 0 0
0.3125 0 0
0.3125 0 0
0.3125 0 0
0.3125 0 0
0.3125 0 0
0.3125 0 0
0.3125 0 0
0.3125 0 0
0.3125 0 0
0.3125 0 0
0.3125 0 0
0.3125 0 0
0.3125 0 0
0.3125 0 0
0.3125 0 0
0.3125 0 0
0.3125 0 0
0.3125 0 0
0.3125 0 0
0.3125 0 0
0.3125 0 0
0.3125 0 0
0.3125 0 0
0.3125 0 0
0.3125 0 0
0.3125 0 0
0.3125 0 0
0.3125 0 0
0.3125 0 0
0.3125 0 0
0.3125 0 0
0.3125 0 0
0.3125 0 0
0.3125 0 0
0.3125 0 0
0.3125 0 0
0.3125 0 0
0.3125 0 0
0.3125 0 0
0.3125 0 0
0.3125 0 0
0.3125 0 0
0.3125 0 0
0.3125 0 0
0.3125 0 0
0.3125 0 0
0.3125 0 0
0.3125 0 0
0.3125 0 0
0.3125 0 0
0.3125 0 0
0.3125 0 0
0.3125 0 0
0.3125 0 0
0.3125 0 0
0.3125 0 0
0.3125 0 0
0.3125 0 0
0.3125 0 0
0.3125 0 0
0.3125 0 0
0.3125 0 0
0.3125 0 0
0.3125 0 0
0.3125 0 0
0.3125 0 0
0.3125 0 0
0.3125 0 0
0.3125 0 0
0.3125 0 0
0.3125 0 0
0.3125 0 0
0.3125 0 0
0.3125 0 0
0.3125 0 0
0.3125 0 0
0.3125 0 0
0.3125 0 0
0.3125 0 0
0.3125 0 0
0.3125 0 0
0.3125 0 0
0.3125 0 0
0.3125 0 0
0.3125 0 0
0.3125 0 0
0.3125 0 0
0.3125 0 0
0.3125 0 0
0.3125 0 0
0.3125 0 0
0.3125 0 0
0.3125 0 0
0.3125 0 0
0.3125 0 0
0.3125 0 0
0.3125 0 0
0.3125 0 0
0.3125 0 0
0.3125 0 0
0.3125 0 0
0.3125 0 0
0.3125 0 0
0.3125 0 0
0.3125 0 0
0.3125 0 0
0.3125 0 0
0.3125 0 0
0.3125 0 0
0.3125 0 0
0.3125 0 0
0.3125 0 0
0.3125 0 0
0.3125 0 0
0.3125 0 0
0.3125 0 0
0.3125 0 0
0.3125 0 0
0.3125 0 0
0.3125 0 0
0.3125 0 0
0.3125 0 0
0.3125 0 0
0.3125 0 0
0.3125 0 0
0.3125 0 0
0.3125 0 0
0.3125 0 0
0.3125 0 0
0.3125 0 0
0.3125 0 0
0.3125 0 0
0.3125 0 0
0.3125 0 0
0.3125 0 0
0.3125 0 0
0.3125 0 0
0.3125 0 0
0.3125 0 0
0.3125 0 0
0.3125 0 0
0.3125 0 0
0.3125 0 0
0.3125 0 0
0.3125 0 0
0.3125 0 0
0.3125 0 0
0.3125 0 0
0.3125 0 0
0.3125 0 0
0.3125 0 0
0.3125 0 0
0.3125 0 0
0.3125 0 0
0.3125 0 0
0.3125 0 0
0.3125 0 0
0.3125 0 0
0.3125 0 0
0.3125 0 0
0.3125 0 0
0.3125 0 0
0.3125 0 0
0.3125 0 0
0.3125 0 0
0.3125 0 0
0.3125 0 0
0.3125 0 0
0.3125 0 0
0.3125 0 0
0.3125 0 0
0.3125 0 0
0.3125 0 0
0.3125 0 0
0.3125 0 0
0.3125 0 0
0.3125 0 0
0.3125 0 0
0.3125 0 0
0.3125 0 0
0.3125 0 0
0.3125 0 0
0.3125 0 0
0.3125 0 0
0.3125 0 0
0.3125 0 0
0.3125 0 0
0.3125 0 0
0.3125 0 0
0.3125 0 0
0.3125 0 0
0.3125 0 0
0.3125 0 0
0.3125 0 0
0.3125 0 0
0.3125 0 0
0.3125 0 0
0.3125 0 0
0.3125 0 0
0.3125 0 0
0.3125 0 0
0.3125 0 0
0.3125 0 0
0.3125 0 0
0.3125 0 0
0.3125 0 0
0.3125 0 0
0.3125 0 0
0.3125 0 0
0.3125 0 0
0.3125 0 0
0.3125 0 0
0.3125 0 0
0.3125 0 0
0.3125 0 0
0.3125 0 0
0.3125 0 0
0.3125 0 0
0.3125 0 0
0.3125 0 0
0.3125 0 0
0.3125 0 0
0.3125 0 0
0.3125 0 0
0.3125 0 0
0.3125 0 0
0.3125 0 0
0.3125 0 0
0.3125 0 0
0.3125 0 0
0.3125 0 0
0.3125 0 0
0.3125 0 0
0.3125 0 0
0.3125 0 0
0.3125 0 0
0.3125 0 0
0.3125 0 0
0.3125 0 0
0.3125 0 0
0.3125 0 0
0.3125 0 0
0.3125 0 0
0.3125 0 0
0.3125 0 0
0.3125 0 0
0.3125 0 0
0.3125 0 0
0.3125 0 0
0.3125 0 0
0.3125 0 0
0.3125 0 0
0.3125 0 0
0.3125 0 0
0.3125 0 0
0.3125 0 0
0.3125 0 0
0.3125 0 0
0.3125 0 0
0.3125 0 0
0.3125 0 0
0.3125 0 0
0.3125 0 0
0.3125 0 0
0.3125 0 0
0.3125 0 0
0.3125 0 0
0.3125 0 0
0.3125 0 0
0.3125 0 0
0.3125 0 0
0.3125 0 0
0.3125 0 0
0.3125 0 0
0.3125 0 0
0.3125 0 0
0.3125 0 0
0.3125 0 0
0.3125 0 0
0.3125 0 0
0.3125 0 0
0.3125 0 0
0.3125 0 0
0.3125 0 0
0.3125 0 0
0.3125 0 0
0.3125 0 0
0.3125 0 0
0.3125 0 0
0.3125 0 0
0.3125 0 0
0.3125 0 0
0.3125 0 0
0.3125 0 0
0.3125 0 0
0.3125 0 0
0.3125 0 0
0.3125 0 0
0.3125 0 0
0.3125 0 0
0.3125 0 0
0.3125 0 0
0.3125 0 0
0.3125 0 0
0.3125 0 0
0.3125 0 0
0.3125 0 0
0.3125 0 0
0.3125 0 0
0.3125 0 0
0.3125 0 0
0.3125 0 0
0.3125 0 0
0.3125 0 0
0.3125 0 0
0.3125 0 0
0.3125 0 0
0.3125 0 0
0.3125 0 0
0.3125 0 0
0.3125 0 0
0.3125 0 0
0.3125 0 0
0.3125 0 0
0.3125 0 0
0.3125 0 0
0.3125 0 0
0.3125 0 0
0.3125 0 0
0.3125 0 0
0.3125 0 0
0.3125 0 0
0.3125 0 0
0.3125 0 0
0.3125 0 0
0.3125 0 0
0.3125 0 0
0.3125 0 0
0.3125 0 0
0.3125 0 0
0.3125 0 0
0.3125 0 0
0.3125 0 0
0.3125 0 0
0.3125 0 0
0.3125 0 0
0.3125 0 0
0.3125 0 0
0.3125 0 0
0.3125 0 0
0.3125 0 0
0.3125 0 0
0.3125 0 0
0.3125 0 0
0.3125 0 0
0.3125 0 0
0.3125 0 0
0.3125 0 0
0.3125 0 0
0.3125 0 0
0.3125 0 0
0.3125 0 0
0.3125 0 0
0.3125 0 0
0.3125 0 0
0.3125 0 0
0.3125 0 0
0.3125 0 0
0.3125 0 0
0.3125 0 0
0.3125 0 0
0.3125 0 0
0.3125 0 0
0.3125 0 0
0.3125 0 0
0.3125 0 0
0.3125 0 0
0.3125 0 0
0.3125 0 0
0.3125 0 0
0.3125 0 0
0.3125 0 0
0.3125 0 0
0.3125 0 0
