# vtk DataFile Version 1.0
Cube
ASCII

DATASET POLYDATA
POINTS 540 float
0.462073 4.952938 15.248115
0.519626 3.286981 15.028330
30.462073 4.952938 15.248115
30.519626 3.286981 15.028330
3.965413 6.128251 1.190780
5.076091 7.070050 0.729603
3.965413 6.128251 31.190780
5.076091 7.070050 30.729603
8.795179 -3.548245 19.457162
8.642598 -2.113556 19.714522
8.795179 26.451755 19.457162
8.642598 27.886444 19.714522
4.950568 2.766542 16.108725
4.200268 1.527405 15.627730
4.950568 32.766542 16.108725
4.200268 31.527405 15.627730
3.581890 15.382239 18.868259
3.908423 15.971363 17.590820
12.987675 0.372897 24.364745
13.315142 -1.089901 24.140015
12.987675 30.372897 24.364745
13.315142 28.910099 24.140015
17.157739 -2.521808 25.104002
17.070012 -1.053790 25.554957
17.157739 27.478192 25.104002
17.070012 28.946210 25.554957
4.094557 20.132127 8.426303
2.911500 20.493160 7.445157
4.484156 19.472725 22.207630
3.363132 20.351274 22.720978
18.519425 20.736201 14.064379
17.318351 20.996986 14.932478
18.692573 15.264051 11.924382
19.004198 14.795886 10.515992
1.463644 23.673150 18.701088
1.224942 22.649138 17.634545
31.463644 23.673150 18.701088
31.224942 22.649138 17.634545
15.806626 23.882458 18.418127
15.231061 23.858061 16.969157
20.448290 2.067456 3.552923
20.947417 0.981393 2.624429
20.448290 32.067456 3.552923
20.947417 30.981393 2.624429
22.548699 -0.503421 13.772712
21.466343 -1.465614 13.723284
22.548699 29.496579 13.772712
21.466343 28.534386 13.723284
1.315092 2.515413 9.650651
-0.149660 1.849065 9.718414
1.315092 32.515413 9.650651
-0.149660 31.849065 9.718414
31.315092 2.515413 9.650651
29.850340 1.849065 9.718414
31.315092 32.515413 9.650651
29.850340 31.849065 9.718414
14.613277 3.016942 20.889572
15.088465 3.298391 22.294126
22.157102 18.505058 25.372919
22.398758 19.285986 26.745884
11.193036 16.320181 1.064814
10.584056 17.728684 1.096474
11.193036 16.320181 31.064814
10.584056 17.728684 31.096474
12.079093 6.639273 17.851565
12.626271 8.057380 17.788541
23.747616 20.143540 6.018243
24.245499 19.240180 7.191706
11.628544 7.663255 23.272470
13.061877 7.756337 22.975171
20.259768 25.623437 20.611939
20.769021 27.056869 20.916464
8.524259 4.489688 -1.787296
8.138590 5.844745 -2.416726
8.524259 4.489688 28.212704
8.138590 5.844745 27.583274
-0.177969 4.362895 -1.873878
-0.458552 4.581234 -3.437066
-0.177969 4.362895 28.126122
-0.458552 4.581234 26.562934
29.822031 4.362895 -1.873878
29.541448 4.581234 -3.437066
29.822031 4.362895 28.126122
29.541448 4.581234 26.562934
14.699665 10.554708 11.261365
13.627604 9.493078 11.337789
24.689437 15.791993 3.093647
24.116862 15.425956 1.712197
24.689437 15.791993 33.093647
24.116862 15.425956 31.712197
1.838818 18.606873 25.670673
0.473583 18.103609 25.904777
31.838818 18.606873 25.670673
30.473583 18.103609 25.904777
1.032446 18.213326 16.278006
-0.122618 19.320886 16.244424
31.032446 18.213326 16.278006
29.877382 19.320886 16.244424
7.441634 15.249926 2.889171
7.606038 13.762990 2.556694
7.441634 15.249926 32.889171
7.606038 13.762990 32.556694
22.739603 9.068149 23.533193
22.200484 9.476217 24.903221
24.295434 27.023688 18.517502
23.183189 26.902321 17.427473
8.147357 0.675076 16.181445
9.741659 0.735417 16.120182
8.147357 30.675076 16.181445
9.741659 30.735417 16.120182
12.531295 -0.374738 13.695915
12.752818 -1.646938 12.881702
12.531295 29.625262 13.695915
12.752818 28.353062 12.881702
12.334169 18.437880 26.327842
13.185520 19.298609 27.207683
10.860492 13.733258 15.161928
12.160133 13.935521 15.938957
26.051005 0.581264 16.569247
26.106729 -0.376555 15.231029
26.051005 30.581264 16.569247
26.106729 29.623445 15.231029
9.989316 11.023530 10.917848
8.581163 10.736580 10.466288
5.368414 17.296863 10.126591
4.979582 16.145053 9.222118
13.571540 23.348234 6.540824
14.151305 22.267745 5.677219
-3.042912 17.202757 21.646921
-2.766180 15.707542 22.163135
26.957088 17.202757 21.646921
27.233820 15.707542 22.163135
17.075380 20.298634 -2.466489
16.827673 19.595741 -1.091356
17.075380 20.298634 27.533511
16.827673 19.595741 28.908644
20.723043 -2.886026 6.009683
21.711342 -1.707654 6.365591
20.723043 27.113974 6.009683
21.711342 28.292346 6.365591
25.719480 -1.439255 8.331028
25.466002 -0.252789 9.190772
25.719480 28.560745 8.331028
25.466002 29.747211 9.190772
13.689438 23.457750 24.528937
12.210476 23.458008 24.336928
11.958638 11.084116 21.404605
11.874338 12.567690 21.111214
21.588797 20.686948 21.334194
22.319732 20.016462 20.125039
1.658401 1.244074 -0.723631
2.351805 0.642581 0.637829
1.658401 1.244074 29.276369
2.351805 0.642581 30.637829
1.658401 31.244074 -0.723631
2.351805 30.642581 0.637829
1.658401 31.244074 29.276369
2.351805 30.642581 30.637829
31.658401 1.244074 -0.723631
32.351805 0.642581 0.637829
31.658401 1.244074 29.276369
32.351805 0.642581 30.637829
31.658401 31.244074 -0.723631
32.351805 30.642581 0.637829
31.658401 31.244074 29.276369
32.351805 30.642581 30.637829
5.458995 22.229730 25.989996
5.430754 22.270083 27.478449
20.581842 22.035492 10.729334
20.701505 21.035185 9.662747
8.302702 16.421047 18.021744
8.512667 14.984622 17.485757
23.338101 20.466767 13.301712
23.112473 20.588083 14.825237
13.668571 3.744954 12.925847
14.429600 2.484052 13.243600
-1.792298 9.587924 13.600129
-1.402490 10.580288 12.461840
28.207702 9.587924 13.600129
28.597510 10.580288 12.461840
14.759697 -1.474673 8.705395
14.579283 0.000640 8.088727
14.759697 28.525327 8.705395
14.579283 30.000640 8.088727
4.596021 14.825053 13.158335
3.508209 14.350477 14.045125
13.650452 27.290802 0.519634
12.783518 26.289707 -0.154915
13.650452 27.290802 30.519634
12.783518 26.289707 29.845085
7.092241 12.338177 21.826880
6.451560 10.835424 21.469053
10.707960 8.362398 0.438050
10.087542 6.850267 0.703236
10.707960 8.362398 30.438050
10.087542 6.850267 30.703236
6.559962 20.108938 2.586440
7.847681 20.595088 3.267056
6.559962 20.108938 32.586440
7.847681 20.595088 33.267056
16.874353 19.437995 19.584499
15.814241 19.058664 20.699652
4.086240 -1.306934 23.732876
2.562096 -1.600453 23.898284
4.086240 28.693066 23.732876
2.562096 28.399547 23.898284
0.505449 -2.120134 -2.375196
0.675540 -3.671901 -2.279897
0.505449 -2.120134 27.624804
0.675540 -3.671901 27.720103
0.505449 27.879866 -2.375196
0.675540 26.328099 -2.279897
0.505449 27.879866 27.624804
0.675540 26.328099 27.720103
30.505449 -2.120134 -2.375196
30.675540 -3.671901 -2.279897
30.505449 -2.120134 27.624804
30.675540 -3.671901 27.720103
30.505449 27.879866 -2.375196
30.675540 26.328099 -2.279897
30.505449 27.879866 27.624804
30.675540 26.328099 27.720103
-0.844427 8.707961 0.005757
-1.453429 8.248097 1.308852
-0.844427 8.707961 30.005757
-1.453429 8.248097 31.308852
29.155573 8.707961 0.005757
28.546571 8.248097 1.308852
29.155573 8.707961 30.005757
28.546571 8.248097 31.308852
17.260170 14.126800 21.270577
18.516720 14.938008 20.865307
15.199225 6.394002 9.950459
16.645438 5.993729 10.094804
-2.678077 16.110622 17.171581
-1.281752 15.415069 17.119699
27.321923 16.110622 17.171581
28.718248 15.415069 17.119699
2.147821 24.272712 23.471718
2.831147 24.373193 24.779017
32.147821 24.272712 23.471718
32.831147 24.373193 24.779017
19.863299 24.860297 -3.026175
19.561740 25.125532 -1.511156
19.863299 24.860297 26.973825
19.561740 25.125532 28.488844
-1.070542 11.392072 2.881408
-1.253469 12.765633 2.618232
-1.070542 11.392072 32.881408
-1.253469 12.765633 32.618232
28.929458 11.392072 2.881408
28.746531 12.765633 2.618232
28.929458 11.392072 32.881408
28.746531 12.765633 32.618232
3.006066 26.499595 20.056657
4.131025 27.249565 19.343243
10.568390 -0.802146 4.093726
10.276561 -2.086475 3.211587
10.568390 29.197854 4.093726
10.276561 27.913525 3.211587
26.984133 16.887849 -1.902952
26.327038 17.786305 -2.899415
26.984133 16.887849 28.097048
26.327038 17.786305 27.100585
3.586919 6.178186 8.381074
3.526000 6.693152 9.775920
25.773259 11.169864 -0.062099
24.945446 11.689231 1.075260
25.773259 11.169864 29.937901
24.945446 11.689231 31.075260
-2.639803 9.076898 24.557094
-1.999508 9.488118 25.941920
27.360197 9.076898 24.557094
28.000492 9.488118 25.941920
6.890374 8.789542 24.433751
5.505415 8.428632 24.448354
21.794747 7.776464 13.160960
22.664124 7.118252 11.957734
12.195253 -2.221794 17.962945
12.857527 -2.796958 19.172366
12.195253 27.778206 17.962945
12.857527 27.203042 19.172366
-1.967973 -2.519694 0.137287
-3.480886 -1.963430 -0.130471
-1.967973 -2.519694 30.137287
-3.480886 -1.963430 29.869529
-1.967973 27.480306 0.137287
-3.480886 28.036570 -0.130471
-1.967973 27.480306 30.137287
-3.480886 28.036570 29.869529
28.032027 -2.519694 0.137287
26.519114 -1.963430 -0.130471
28.032027 -2.519694 30.137287
26.519114 -1.963430 29.869529
28.032027 27.480306 0.137287
26.519114 28.036570 -0.130471
28.032027 27.480306 30.137287
26.519114 28.036570 29.869529
22.457426 21.842556 0.091589
21.231824 21.731298 1.044483
22.457426 21.842556 30.091589
21.231824 21.731298 31.044483
22.071101 26.908945 9.857281
23.179145 26.929947 11.016350
19.289238 13.240928 16.635574
19.892587 14.597785 16.471122
6.661603 14.819199 24.468874
5.497450 15.611586 23.836513
18.547833 1.818459 20.393160
19.293823 2.532816 19.373004
18.547833 31.818459 20.393160
19.293823 32.532816 19.373004
17.839755 7.053703 17.960736
17.091596 7.449871 16.718738
3.343124 -3.057518 13.475113
2.785139 -2.003574 14.593543
3.343124 26.942482 13.475113
2.785139 27.996426 14.593543
13.663175 12.802370 2.226993
13.115438 12.014411 3.383245
13.663175 12.802370 32.226993
13.115438 12.014411 33.383245
15.056973 15.915609 18.231650
13.868606 16.687484 17.688483
23.353058 -0.140934 23.496536
23.398144 -1.681323 23.866885
23.353058 29.859066 23.496536
23.398144 28.318677 23.866885
11.266571 22.513246 -1.331719
12.800598 22.902942 -1.542880
11.266571 22.513246 28.668281
12.800598 22.902942 28.457120
20.669435 9.732104 4.298666
19.994368 10.502134 5.583324
14.470817 17.474190 23.577125
13.704493 16.503323 22.630470
20.429204 -1.425170 -0.726524
19.588938 -1.939265 0.546295
20.429204 -1.425170 29.273476
19.588938 -1.939265 30.546295
20.429204 28.574830 -0.726524
19.588938 28.060735 0.546295
20.429204 28.574830 29.273476
19.588938 28.060735 30.546295
13.687123 11.550775 25.965352
14.598132 11.038325 24.764861
-2.393266 11.416991 16.833518
-3.134260 11.934466 18.134770
27.606734 11.416991 16.833518
26.865740 11.934466 18.134770
0.193651 21.425998 2.912065
-0.375451 20.770881 4.176835
30.193651 21.425998 2.912065
29.624549 20.770881 4.176835
-2.733529 15.663177 5.914900
-2.059062 16.933219 6.579101
27.266471 15.663177 5.914900
27.940938 16.933219 6.579101
7.103284 9.115467 16.407916
7.486754 8.409698 17.759746
20.905295 5.617719 16.473224
20.364758 4.420127 15.665326
4.513042 4.911985 26.674164
3.465225 3.850715 26.958422
26.939273 -1.718917 25.663670
26.595141 -0.318617 26.411842
26.939273 28.281083 25.663670
26.595141 29.681383 26.411842
4.093367 -2.568400 2.063665
4.407703 -3.400759 0.863255
4.093367 -2.568400 32.063665
4.407703 -3.400759 30.863255
4.093367 27.431600 2.063665
4.407703 26.599241 0.863255
4.093367 27.431600 32.063665
4.407703 26.599241 30.863255
17.908544 18.190276 9.357469
17.886969 18.859737 10.669649
19.796516 10.062594 -2.139643
19.448724 11.596977 -2.414030
19.796516 10.062594 27.860357
19.448724 11.596977 27.585970
18.404452 16.199182 25.443084
17.561299 14.793732 25.573820
11.133495 19.751884 15.415155
12.528837 20.195996 15.626659
24.595974 9.805634 9.596048
25.378842 10.101968 10.974573
17.760752 -1.768476 18.693867
16.473440 -1.486304 17.788272
17.760752 28.231524 18.693867
16.473440 28.513696 17.788272
0.692489 -0.906352 6.849647
-0.271097 -0.259687 5.826443
0.692489 29.093648 6.849647
-0.271097 29.740313 5.826443
30.692489 -0.906352 6.849647
29.728903 -0.259687 5.826443
30.692489 29.093648 6.849647
29.728903 29.740313 5.826443
6.957152 5.384073 7.717208
8.205201 5.299110 8.744032
24.626264 12.297533 21.290243
23.161368 11.774420 21.035602
-2.196876 22.653829 23.930275
-1.069723 22.546356 24.889725
27.803124 22.653829 23.930275
28.930277 22.546356 24.889725
9.700277 23.474966 11.137461
10.283585 23.701229 12.455613
13.045886 5.947839 25.979157
12.762606 4.647438 26.750946
9.258939 4.816416 23.655788
7.812614 5.248183 23.846854
18.243438 1.939320 11.299437
18.966227 1.656290 10.078504
18.243438 31.939320 11.299437
18.966227 31.656290 10.078504
1.763024 24.955019 5.365560
2.994148 24.284931 5.995682
31.763024 24.955019 5.365560
32.994148 24.284931 5.995682
3.172445 8.273076 18.049635
2.967921 8.522662 19.654322
11.544117 0.845583 -1.584203
10.627416 0.550045 -2.896280
11.544117 0.845583 28.415797
10.627416 0.550045 27.103720
11.544117 30.845583 -1.584203
10.627416 30.550045 -2.896280
11.544117 30.845583 28.415797
10.627416 30.550045 27.103720
13.807324 20.030367 11.158872
12.944325 20.978966 12.019053
17.125468 15.197815 -0.601312
17.378897 15.441174 0.888251
17.125468 15.197815 29.398688
17.378897 15.441174 30.888251
15.516200 8.131524 5.258755
15.130295 8.268258 3.697256
-0.851166 -2.137622 14.529997
-1.049934 -2.774738 15.945863
-0.851166 27.862378 14.529997
-1.049934 27.225262 15.945863
29.148834 -2.137622 14.529997
28.950066 -2.774738 15.945863
29.148834 27.862378 14.529997
28.950066 27.225262 15.945863
2.158460 12.814092 6.023480
1.057810 11.839652 6.451657
32.158460 12.814092 6.023480
31.057810 11.839652 6.451657
13.227271 17.228686 13.744847
12.821480 16.748480 12.300607
4.631252 17.497789 4.845467
6.032067 17.500974 5.204611
0.844065 0.132757 18.363728
1.865196 0.306405 19.451678
0.844065 30.132757 18.363728
1.865196 30.306405 19.451678
30.844065 0.132757 18.363728
31.865196 0.306405 19.451678
30.844065 30.132757 18.363728
31.865196 30.306405 19.451678
7.055491 1.550206 20.450362
6.098609 2.101221 19.374554
7.055491 31.550206 20.450362
6.098609 32.101221 19.374554
-0.831788 25.588378 11.277877
-1.503854 25.591109 9.774500
29.168212 25.588378 11.277877
28.496146 25.591109 9.774500
4.122581 25.968273 9.152628
3.328974 24.889623 9.816190
5.530709 -1.816921 -1.337179
5.058440 -2.162491 -2.657178
5.530709 -1.816921 28.662821
5.058440 -2.162491 27.342822
5.530709 28.183079 -1.337179
5.058440 27.837509 -2.657178
5.530709 28.183079 28.662821
5.058440 27.837509 27.342822
15.528855 15.381567 5.931635
15.361375 15.266703 7.407617
18.348917 5.143146 6.871190
19.479843 4.241890 7.427488
5.870089 7.669230 4.348566
7.354156 7.815998 3.907037
24.047055 7.025466 18.318135
25.407457 7.710825 18.645819
11.569632 19.796397 4.576650
12.034640 20.908372 3.499810
-1.029572 11.842280 21.532119
-0.010503 12.620371 22.347491
28.970428 11.842280 21.532119
29.989497 12.620371 22.347491
23.532442 26.990515 -2.560336
23.501865 26.069606 -1.327548
23.532442 26.990515 27.439664
23.501865 26.069606 28.672452
5.130805 19.015393 16.636198
5.550778 18.378047 15.344671
1.196261 8.612631 3.867232
1.267099 7.233890 4.284761
31.196261 8.612631 3.867232
31.267099 7.233890 4.284761
9.579588 21.668395 7.982829
8.652151 21.805282 6.831912
-0.162627 6.343021 8.363059
-0.817468 5.330832 7.352242
29.837373 6.343021 8.363059
29.182532 5.330832 7.352242
17.909074 7.276007 1.261156
18.180194 8.849472 1.345094
17.909074 7.276007 31.261156
18.180194 8.849472 31.345094
9.447578 2.027082 1.713014
8.462852 1.093775 0.837007
9.447578 2.027082 31.713014
8.462852 1.093775 30.837007
9.447578 32.027082 1.713014
8.462852 31.093775 0.837007
9.447578 32.027082 31.713014
8.462852 31.093775 30.837007
5.182934 1.459633 3.456159
6.247440 1.872986 4.498703
5.182934 31.459633 3.456159
6.247440 31.872986 4.498703
2.312689 12.132174 9.940720
2.591999 12.571058 11.249249
32.312689 12.132174 9.940720
32.591999 12.571058 11.249249
25.815656 24.712332 13.005077
26.549671 23.439829 13.349406
6.349119 24.307583 3.795694
7.616282 25.311842 3.784535
-0.134895 14.583285 26.516464
1.427521 14.520686 26.783217
29.865105 14.583285 26.516464
31.427521 14.520686 26.783217
LINES 270 810
2 0 1
2 2 3
2 4 5
2 6 7
2 8 9
2 10 11
2 12 13
2 14 15
2 16 17
2 18 19
2 20 21
2 22 23
2 24 25
2 26 27
2 28 29
2 30 31
2 32 33
2 34 35
2 36 37
2 38 39
2 40 41
2 42 43
2 44 45
2 46 47
2 48 49
2 50 51
2 52 53
2 54 55
2 56 57
2 58 59
2 60 61
2 62 63
2 64 65
2 66 67
2 68 69
2 70 71
2 72 73
2 74 75
2 76 77
2 78 79
2 80 81
2 82 83
2 84 85
2 86 87
2 88 89
2 90 91
2 92 93
2 94 95
2 96 97
2 98 99
2 100 101
2 102 103
2 104 105
2 106 107
2 108 109
2 110 111
2 112 113
2 114 115
2 116 117
2 118 119
2 120 121
2 122 123
2 124 125
2 126 127
2 128 129
2 130 131
2 132 133
2 134 135
2 136 137
2 138 139
2 140 141
2 142 143
2 144 145
2 146 147
2 148 149
2 150 151
2 152 153
2 154 155
2 156 157
2 158 159
2 160 161
2 162 163
2 164 165
2 166 167
2 168 169
2 170 171
2 172 173
2 174 175
2 176 177
2 178 179
2 180 181
2 182 183
2 184 185
2 186 187
2 188 189
2 190 191
2 192 193
2 194 195
2 196 197
2 198 199
2 200 201
2 202 203
2 204 205
2 206 207
2 208 209
2 210 211
2 212 213
2 214 215
2 216 217
2 218 219
2 220 221
2 222 223
2 224 225
2 226 227
2 228 229
2 230 231
2 232 233
2 234 235
2 236 237
2 238 239
2 240 241
2 242 243
2 244 245
2 246 247
2 248 249
2 250 251
2 252 253
2 254 255
2 256 257
2 258 259
2 260 261
2 262 263
2 264 265
2 266 267
2 268 269
2 270 271
2 272 273
2 274 275
2 276 277
2 278 279
2 280 281
2 282 283
2 284 285
2 286 287
2 288 289
2 290 291
2 292 293
2 294 295
2 296 297
2 298 299
2 300 301
2 302 303
2 304 305
2 306 307
2 308 309
2 310 311
2 312 313
2 314 315
2 316 317
2 318 319
2 320 321
2 322 323
2 324 325
2 326 327
2 328 329
2 330 331
2 332 333
2 334 335
2 336 337
2 338 339
2 340 341
2 342 343
2 344 345
2 346 347
2 348 349
2 350 351
2 352 353
2 354 355
2 356 357
2 358 359
2 360 361
2 362 363
2 364 365
2 366 367
2 368 369
2 370 371
2 372 373
2 374 375
2 376 377
2 378 379
2 380 381
2 382 383
2 384 385
2 386 387
2 388 389
2 390 391
2 392 393
2 394 395
2 396 397
2 398 399
2 400 401
2 402 403
2 404 405
2 406 407
2 408 409
2 410 411
2 412 413
2 414 415
2 416 417
2 418 419
2 420 421
2 422 423
2 424 425
2 426 427
2 428 429
2 430 431
2 432 433
2 434 435
2 436 437
2 438 439
2 440 441
2 442 443
2 444 445
2 446 447
2 448 449
2 450 451
2 452 453
2 454 455
2 456 457
2 458 459
2 460 461
2 462 463
2 464 465
2 466 467
2 468 469
2 470 471
2 472 473
2 474 475
2 476 477
2 478 479
2 480 481
2 482 483
2 484 485
2 486 487
2 488 489
2 490 491
2 492 493
2 494 495
2 496 497
2 498 499
2 500 501
2 502 503
2 504 505
2 506 507
2 508 509
2 510 511
2 512 513
2 514 515
2 516 517
2 518 519
2 520 521
2 522 523
2 524 525
2 526 527
2 528 529
2 530 531
2 532 533
2 534 535
2 536 537
2 538 539
POINT_DATA 540
SCALARS my_scalars float
LOOKUP_TABLE default
1.7
1.7
1.7
1.7
1.7
1.7
1.7
1.7
1.7
1.7
1.7
1.7
1.7
1.7
1.7
1.7
1.7
1.7
1.7
1.7
1.7
1.7
1.7
1.7
1.7
1.7
1.7
1.7
1.7
1.7
1.7
1.7
1.7
1.7
1.7
1.7
1.7
1.7
1.7
1.7
1.7
1.7
1.7
1.7
1.7
1.7
1.7
1.7
1.7
1.7
1.7
1.7
1.7
1.7
1.7
1.7
1.7
1.7
1.7
1.7
1.7
1.7
1.7
1.7
1.7
1.7
1.7
1.7
1.7
1.7
1.7
1.7
1.7
1.7
1.7
1.7
1.7
1.7
1.7
1.7
1.7
1.7
1.7
1.7
1.7
1.7
1.7
1.7
1.7
1.7
1.7
1.7
1.7
1.7
1.7
1.7
1.7
1.7
1.7
1.7
1.7
1.7
1.7
1.7
1.7
1.7
1.7
1.7
1.7
1.7
1.7
1.7
1.7
1.7
1.7
1.7
1.7
1.7
1.7
1.7
1.7
1.7
1.7
1.7
1.7
1.7
1.7
1.7
1.7
1.7
1.7
1.7
1.7
1.7
1.7
1.7
1.7
1.7
1.7
1.7
1.7
1.7
1.7
1.7
1.7
1.7
1.7
1.7
1.7
1.7
1.7
1.7
1.7
1.7
1.7
1.7
1.7
1.7
1.7
1.7
1.7
1.7
1.7
1.7
1.7
1.7
1.7
1.7
1.7
1.7
1.7
1.7
1.7
1.7
1.7
1.7
1.7
1.7
1.7
1.7
1.7
1.7
1.7
1.7
1.7
1.7
1.7
1.7
1.7
1.7
1.7
1.7
1.7
1.7
1.7
1.7
1.7
1.7
1.7
1.7
1.7
1.7
1.7
1.7
1.7
1.7
1.7
1.7
1.7
1.7
1.7
1.7
1.7
1.7
1.7
1.7
1.7
1.7
1.7
1.7
1.7
1.7
1.7
1.7
1.7
1.7
1.7
1.7
1.7
1.7
1.7
1.7
1.7
1.7
1.7
1.7
1.7
1.7
1.7
1.7
1.7
1.7
1.7
1.7
1.7
1.7
1.7
1.7
1.7
1.7
1.7
1.7
1.7
1.7
1.7
1.7
1.7
1.7
1.7
1.7
1.7
1.7
1.7
1.7
1.7
1.7
1.7
1.7
1.7
1.7
1.7
1.7
1.7
1.7
1.7
1.7
1.7
1.7
1.7
1.7
1.7
1.7
1.7
1.7
1.7
1.7
1.7
1.7
1.7
1.7
1.7
1.7
1.7
1.7
1.7
1.7
1.7
1.7
1.7
1.7
1.7
1.7
1.7
1.7
1.7
1.7
1.7
1.7
1.7
1.7
1.7
1.7
1.7
1.7
1.7
1.7
1.7
1.7
1.7
1.7
1.7
1.7
1.7
1.7
1.7
1.7
1.7
1.7
1.7
1.7
1.7
1.7
1.7
1.7
1.7
1.7
1.7
1.7
1.7
1.7
1.7
1.7
1.7
1.7
1.7
1.7
1.7
1.7
1.7
1.7
1.7
1.7
1.7
1.7
1.7
1.7
1.7
1.7
1.7
1.7
1.7
1.7
1.7
1.7
1.7
1.7
1.7
1.7
1.7
1.7
1.7
1.7
1.7
1.7
1.7
1.7
1.7
1.7
1.7
1.7
1.7
1.7
1.7
1.7
1.7
1.7
1.7
1.7
1.7
1.7
1.7
1.7
1.7
1.7
1.7
1.7
1.7
1.7
1.7
1.7
1.7
1.7
1.7
1.7
1.7
1.7
1.7
1.7
1.7
1.7
1.7
1.7
1.7
1.7
1.7
1.7
1.7
1.7
1.7
1.7
1.7
1.7
1.7
1.7
1.7
1.7
1.7
1.7
1.7
1.7
1.7
1.7
1.7
1.7
1.7
1.7
1.7
1.7
1.7
1.7
1.7
1.7
1.7
1.7
1.7
1.7
1.7
1.7
1.7
1.7
1.7
1.7
1.7
1.7
1.7
1.7
1.7
1.7
1.7
1.7
1.7
1.7
1.7
1.7
1.7
1.7
1.7
1.7
1.7
1.7
1.7
1.7
1.7
1.7
1.7
1.7
1.7
1.7
1.7
1.7
1.7
1.7
1.7
1.7
1.7
1.7
1.7
1.7
1.7
1.7
1.7
1.7
1.7
1.7
1.7
1.7
1.7
1.7
1.7
1.7
1.7
1.7
1.7
1.7
1.7
1.7
1.7
1.7
1.7
1.7
1.7
1.7
1.7
1.7
1.7
1.7
1.7
1.7
1.7
1.7
1.7
1.7
1.7
1.7
1.7
1.7
1.7
1.7
1.7
1.7
1.7
1.7
1.7
1.7
1.7
1.7
1.7
1.7
1.7
1.7
VECTORS vectors float
0.3125 0 0
0.3125 0 0
0.3125 0 0
0.3125 0 0
0.3125 0 0
0.3125 0 0
0.3125 0 0
0.3125 0 0
0.3125 0 0
0.3125 0 0
0.3125 0 0
0.3125 0 0
0.3125 0 0
0.3125 0 0
0.3125 0 0
0.3125 0 0
0.3125 0 0
0.3125 0 0
0.3125 0 0
0.3125 0 0
0.3125 0 0
0.3125 0 0
0.3125 0 0
0.3125 0 0
0.3125 0 0
0.3125 0 0
0.3125 0 0
0.3125 0 0
0.3125 0 0
0.3125 0 0
0.3125 0 0
0.3125 0 0
0.3125 0 0
0.3125 0 0
0.3125 0 0
0.3125 0 0
0.3125 0 0
0.3125 0 0
0.3125 0 0
0.3125 0 0
0.3125 0 0
0.3125 0 0
0.3125 0 0
0.3125 0 0
0.3125 0 0
0.3125 0 0
0.3125 0 0
0.3125 0 0
0.3125 0 0
0.3125 0 0
0.3125 0 0
0.3125 0 0
0.3125 0 0
0.3125 0 0
0.3125 0 0
0.3125 0 0
0.3125 0 0
0.3125 0 0
0.3125 0 0
0.3125 0 0
0.3125 0 0
0.3125 0 0
0.3125 0 0
0.3125 0 0
0.3125 0 0
0.3125 0 0
0.3125 0 0
0.3125 0 0
0.3125 0 0
0.3125 0 0
0.3125 0 0
0.3125 0 0
0.3125 0 0
0.3125 0 0
0.3125 0 0
0.3125 0 0
0.3125 0 0
0.3125 0 0
0.3125 0 0
0.3125 0 0
0.3125 0 0
0.3125 0 0
0.3125 0 0
0.3125 0 0
0.3125 0 0
0.3125 0 0
0.3125 0 0
0.3125 0 0
0.3125 0 0
0.3125 0 0
0.3125 0 0
0.3125 0 0
0.3125 0 0
0.3125 0 0
0.3125 0 0
0.3125 0 0
0.3125 0 0
0.3125 0 0
0.3125 0 0
0.3125 0 0
0.3125 0 0
0.3125 0 0
0.3125 0 0
0.3125 0 0
0.3125 0 0
0.3125 0 0
0.3125 0 0
0.3125 0 0
0.3125 0 0
0.3125 0 0
0.3125 0 0
0.3125 0 0
0.3125 0 0
0.3125 0 0
0.3125 0 0
0.3125 0 0
0.3125 0 0
0.3125 0 0
0.3125 0 0
0.3125 0 0
0.3125 0 0
0.3125 0 0
0.3125 0 0
0.3125 0 0
0.3125 0 0
0.3125 0 0
0.3125 0 0
0.3125 0 0
0.3125 0 0
0.3125 0 0
0.3125 0 0
0.3125 0 0
0.3125 0 0
0.3125 0 0
0.3125 0 0
0.3125 0 0
0.3125 0 0
0.3125 0 0
0.3125 0 0
0.3125 0 0
0.3125 0 0
0.3125 0 0
0.3125 0 0
0.3125 0 0
0.3125 0 0
0.3125 0 0
0.3125 0 0
0.3125 0 0
0.3125 0 0
0.3125 0 0
0.3125 0 0
0.3125 0 0
0.3125 0 0
0.3125 0 0
0.3125 0 0
0.3125 0 0
0.3125 0 0
0.3125 0 0
0.3125 0 0
0.3125 0 0
0.3125 0 0
0.3125 0 0
0.3125 0 0
0.3125 0 0
0.3125 0 0
0.3125 0 0
0.3125 0 0
0.3125 0 0
0.3125 0 0
0.3125 0 0
0.3125 0 0
0.3125 0 0
0.3125 0 0
0.3125 0 0
0.3125 0 0
0.3125 0 0
0.3125 0 0
0.3125 0 0
0.3125 0 0
0.3125 0 0
0.3125 0 0
0.3125 0 0
0.3125 0 0
0.3125 0 0
0.3125 0 0
0.3125 0 0
0.3125 0 0
0.3125 0 0
0.3125 0 0
0.3125 0 0
0.3125 0 0
0.3125 0 0
0.3125 0 0
0.3125 0 0
0.3125 0 0
0.3125 0 0
0.3125 0 0
0.3125 0 0
0.3125 0 0
0.3125 0 0
0.3125 0 0
0.3125 0 0
0.3125 0 0
0.3125 0 0
0.3125 0 0
0.3125 0 0
0.3125 0 0
0.3125 0 0
0.3125 0 0
0.3125 0 0
0.3125 0 0
0.3125 0 0
0.3125 0 0
0.3125 0 0
0.3125 0 0
0.3125 0 0
0.3125 0 0
0.3125 0 0
0.3125 0 0
0.3125 0 0
0.3125 0 0
0.3125 0 0
0.3125 0 0
0.3125 0 0
0.3125 0 0
0.3125 0 0
0.3125 0 0
0.3125 0 0
0.3125 0 0
0.3125 0 0
0.3125 0 0
0.3125 0 0
0.3125 0 0
0.3125 0 0
0.3125 0 0
0.3125 0 0
0.3125 0 0
0.3125 0 0
0.3125 0 0
0.3125 0 0
0.3125 0 0
0.3125 0 0
0.3125 0 0
0.3125 0 0
0.3125 0 0
0.3125 0 0
0.3125 0 0
0.3125 0 0
0.3125 0 0
0.3125 0 0
0.3125 0 0
0.3125 0 0
0.3125 0 0
0.3125 0 0
0.3125 0 0
0.3125 0 0
0.3125 0 0
0.3125 0 0
0.3125 0 0
0.3125 0 0
0.3125 0 0
0.3125 0 0
0.3125 0 0
0.3125 0 0
0.3125 0 0
0.3125 0 0
0.3125 0 0
0.3125 0 0
0.3125 0 0
0.3125 0 0
0.3125 0 0
0.3125 0 0
0.3125 0 0
0.3125 0 0
0.3125 0 0
0.3125 0 0
0.3125 0 0
0.3125 0 0
0.3125 0 0
0.3125 0 0
0.3125 0 0
0.3125 0 0
0.3125 0 0
0.3125 0 0
0.3125 0 0
0.3125 0 0
0.3125 0 0
0.3125 0 0
0.3125 0 0
0.3125 0 0
0.3125 0 0
0.3125 0 0
0.3125 0 0
0.3125 0 0
0.3125 0 0
0.3125 0 0
0.3125 0 0
0.3125 0 0
0.3125 0 0
0.3125 0 0
0.3125 0 0
0.3125 0 0
0.3125 0 0
0.3125 0 0
0.3125 0 0
0.3125 0 0
0.3125 0 0
0.3125 0 0
0.3125 0 0
0.3125 0 0
0.3125 0 0
0.3125 0 0
0.3125 0 0
0.3125 0 0
0.3125 0 0
0.3125 0 0
0.3125 0 0
0.3125 0 0
0.3125 0 0
0.3125 0 0
0.3125 0 0
0.3125 0 0
0.3125 0 0
0.3125 0 0
0.3125 0 0
0.3125 0 0
0.3125 0 0
0.3125 0 0
0.3125 0 0
0.3125 0 0
0.3125 0 0
0.3125 0 0
0.3125 0 0
0.3125 0 0
0.3125 0 0
0.3125 0 0
0.3125 0 0
0.3125 0 0
0.3125 0 0
0.3125 0 0
0.3125 0 0
0.3125 0 0
0.3125 0 0
0.3125 0 0
0.3125 0 0
0.3125 0 0
0.3125 0 0
0.3125 0 0
0.3125 0 0
0.3125 0 0
0.3125 0 0
0.3125 0 0
0.3125 0 0
0.3125 0 0
0.3125 0 0
0.3125 0 0
0.3125 0 0
0.3125 0 0
0.3125 0 0
0.3125 0 0
0.3125 0 0
0.3125 0 0
0.3125 0 0
0.3125 0 0
0.3125 0 0
0.3125 0 0
0.3125 0 0
0.3125 0 0
0.3125 0 0
0.3125 0 0
0.3125 0 0
0.3125 0 0
0.3125 0 0
0.3125 0 0
0.3125 0 0
0.3125 0 0
0.3125 0 0
0.3125 0 0
0.3125 0 0
0.3125 0 0
0.3125 0 0
0.3125 0 0
0.3125 0 0
0.3125 0 0
0.3125 0 0
0.3125 0 0
0.3125 0 0
0.3125 0 0
0.3125 0 0
0.3125 0 0
0.3125 0 0
0.3125 0 0
0.3125 0 0
0.3125 0 0
0.3125 0 0
0.3125 0 0
0.3125 0 0
0.3125 0 0
0.3125 0 0
0.3125 0 0
0.3125 0 0
0.3125 0 0
0.3125 0 0
0.3125 0 0
0.3125 0 0
0.3125 0 0
0.3125 0 0
0.3125 0 0
0.3125 0 0
0.3125 0 0
0.3125 0 0
0.3125 0 0
0.3125 0 0
0.3125 0 0
0.3125 0 0
0.3125 0 0
0.3125 0 0
0.3125 0 0
0.3125 0 0
0.3125 0 0
0.3125 0 0
0.3125 0 0
0.3125 0 0
0.3125 0 0
0.3125 0 0
0.3125 0 0
0.3125 0 0
0.3125 0 0
0.3125 0 0
0.3125 0 0
0.3125 0 0
0.3125 0 0
0.3125 0 0
0.3125 0 0
0.3125 0 0
0.3125 0 0
0.3125 0 0
0.3125 0 0
0.3125 0 0
0.3125 0 0
0.3125 0 0
0.3125 0 0
0.3125 0 0
0.3125 0 0
0.3125 0 0
0.3125 0 0
0.3125 0 0
0.3125 0 0
0.3125 0 0
0.3125 0 0
0.3125 0 0
0.3125 0 0
0.3125 0 0
0.3125 0 0
0.3125 0 0
0.3125 0 0
0.3125 0 0
0.3125 0 0
0.3125 0 0
0.3125 0 0
0.3125 0 0
0.3125 0 0
0.3125 0 0
0.3125 0 0
0.3125 0 0
0.3125 0 0
0.3125 0 0
0.3125 0 0
0.3125 0 0
0.3125 0 0
0.3125 0 0
0.3125 0 0
0.3125 0 0
0.3125 0 0
0.3125 0 0
0.3125 0 0
0.3125 0 0
0.3125 0 0
0.3125 0 0
0.3125 0 0
0.3125 0 0
0.3125 0 0
0.3125 0 0
0.3125 0 0
0.3125 0 0
0.3125 0 0
0.3125 0 0
0.3125 0 0
0.3125 0 0
0.3125 0 0
0.3125 0 0
0.3125 0 0
0.3125 0 0
0.3125 0 0
0.3125 0 0
0.3125 0 0
0.3125 0 0
0.3125 0 0
0.3125 0 0
0.3125 0 0
0.3125 0 0
0.3125 0 0
0.3125 0 0
0.3125 0 0
0.3125 0 0
0.3125 0 0
0.3125 0 0
0.3125 0 0
0.3125 0 0
0.3125 0 0
0.3125 0 0
0.3125 0 0
0.3125 0 0
0.3125 0 0
0.3125 0 0
0.3125 0 0
0.3125 0 0
0.3125 0 0
0.3125 0 0
0.3125 0 0
0.3125 0 0
0.3125 0 0
0.3125 0 0
0.3125 0 0
0.3125 0 0
0.3125 0 0
0.3125 0 0
0.3125 0 0
0.3125 0 0
0.3125 0 0
0.3125 0 0
0.3125 0 0
0.3125 0 0
0.3125 0 0
0.3125 0 0
0.3125 0 0
0.3125 0 0
0.3125 0 0
0.3125 0 0
0.3125 0 0
