# vtk DataFile Version 1.0
Cube
ASCII

DATASET POLYDATA
POINTS 1086 float
LINES 0 0
POINT_DATA 1086
SCALARS my_scalars float
LOOKUP_TABLE default
VECTORS vectors float
