# vtk DataFile Version 1.0
Cube
ASCII

DATASET POLYDATA
POINTS 752 float
LINES 0 0
POINT_DATA 752
SCALARS my_scalars float
LOOKUP_TABLE default
VECTORS vectors float
